 Entering Gaussian System, Link 0=g16
 Initial command:
 /opt/g16/l1.exe "/scratch/471/Gau-308807.inp" -scrdir="/scratch/471/"
 Entering Link 1 = /opt/g16/l1.exe PID=    308808.
  
 Copyright (c) 1988-2017, Gaussian, Inc.  All Rights Reserved.
  
 This is part of the Gaussian(R) 16 program.  It is based on
 the Gaussian(R) 09 system (copyright 2009, Gaussian, Inc.),
 the Gaussian(R) 03 system (copyright 2003, Gaussian, Inc.),
 the Gaussian(R) 98 system (copyright 1998, Gaussian, Inc.),
 the Gaussian(R) 94 system (copyright 1995, Gaussian, Inc.),
 the Gaussian 92(TM) system (copyright 1992, Gaussian, Inc.),
 the Gaussian 90(TM) system (copyright 1990, Gaussian, Inc.),
 the Gaussian 88(TM) system (copyright 1988, Gaussian, Inc.),
 the Gaussian 86(TM) system (copyright 1986, Carnegie Mellon
 University), and the Gaussian 82(TM) system (copyright 1983,
 Carnegie Mellon University). Gaussian is a federally registered
 trademark of Gaussian, Inc.
  
 This software contains proprietary and confidential information,
 including trade secrets, belonging to Gaussian, Inc.
  
 This software is provided under written license and may be
 used, copied, transmitted, or stored only in accord with that
 written license.
  
 The following legend is applicable only to US Government
 contracts under FAR:
  
                    RESTRICTED RIGHTS LEGEND
  
 Use, reproduction and disclosure by the US Government is
 subject to restrictions as set forth in subparagraphs (a)
 and (c) of the Commercial Computer Software - Restricted
 Rights clause in FAR 52.227-19.
  
 Gaussian, Inc.
 340 Quinnipiac St., Bldg. 40, Wallingford CT 06492
  
  
 ---------------------------------------------------------------
 Warning -- This program may not be used in any manner that
 competes with the business of Gaussian, Inc. or will provide
 assistance to any competitor of Gaussian, Inc.  The licensee
 of this program is prohibited from giving any competitor of
 Gaussian, Inc. access to this program.  By using this program,
 the user acknowledges that Gaussian, Inc. is engaged in the
 business of creating and licensing software in the field of
 computational chemistry and represents and warrants to the
 licensee that it is not a competitor of Gaussian, Inc. and that
 it will not use this program in any manner prohibited above.
 ---------------------------------------------------------------
  

 Cite this work as:
 Gaussian 16, Revision B.01,
 M. J. Frisch, G. W. Trucks, H. B. Schlegel, G. E. Scuseria, 
 M. A. Robb, J. R. Cheeseman, G. Scalmani, V. Barone, 
 G. A. Petersson, H. Nakatsuji, X. Li, M. Caricato, A. V. Marenich, 
 J. Bloino, B. G. Janesko, R. Gomperts, B. Mennucci, H. P. Hratchian, 
 J. V. Ortiz, A. F. Izmaylov, J. L. Sonnenberg, D. Williams-Young, 
 F. Ding, F. Lipparini, F. Egidi, J. Goings, B. Peng, A. Petrone, 
 T. Henderson, D. Ranasinghe, V. G. Zakrzewski, J. Gao, N. Rega, 
 G. Zheng, W. Liang, M. Hada, M. Ehara, K. Toyota, R. Fukuda, 
 J. Hasegawa, M. Ishida, T. Nakajima, Y. Honda, O. Kitao, H. Nakai, 
 T. Vreven, K. Throssell, J. A. Montgomery, Jr., J. E. Peralta, 
 F. Ogliaro, M. J. Bearpark, J. J. Heyd, E. N. Brothers, K. N. Kudin, 
 V. N. Staroverov, T. A. Keith, R. Kobayashi, J. Normand, 
 K. Raghavachari, A. P. Rendell, J. C. Burant, S. S. Iyengar, 
 J. Tomasi, M. Cossi, J. M. Millam, M. Klene, C. Adamo, R. Cammi, 
 J. W. Ochterski, R. L. Martin, K. Morokuma, O. Farkas, 
 J. B. Foresman, and D. J. Fox, Gaussian, Inc., Wallingford CT, 2016.
 
 ******************************************
 Gaussian 16:  ES64L-G16RevB.01 20-Dec-2017
                 6-Apr-2020 
 ******************************************
 %nprocshared=16
 Will use up to   16 processors via shared memory.
 %mem=24GB
 %chk=B2H6_N+1.chk
 ----------------------------------------------------------------------
 # UPBE0/Gen 5D NoSymm SCF=(Tight,MaxCyc=500,NoVarAcc,XQC) Int=(Grid=Ul
 traFine,Acc2e=12)
 ----------------------------------------------------------------------
 1/38=1,172=1/1;
 2/12=2,15=1,17=6,18=5,40=1/2;
 3/5=7,8=1,11=2,25=1,27=12,30=1,74=-78,75=-5,116=2/1,2,3;
 4//1;
 5/5=2,7=500,8=3,13=1,32=2,38=1,87=12/2,8;
 8/10=1,87=12/1;
 9/16=-3,87=12/6;
 6/7=2,8=2,9=2,10=2,87=12/1;
 99/5=1,9=1/99;
 ----------------------------------------------------
 Single point of B2H6^-1 in vacuo for dual descriptor
 ----------------------------------------------------
 Symbolic Z-matrix:
 Charge = -1 Multiplicity = 2
 B                     0.8714    0.        0. 
 H                     1.44806   1.03606   0. 
 H                     1.44806  -1.03606   0. 
 B                    -0.8714    0.        0. 
 H                    -1.44806  -1.03606   0. 
 H                     0.       0.         0.97796 
 H                    -1.44806   1.03606   0. 
 H                     0.       0.        -0.97796 
 
                          Input orientation:                          
 ---------------------------------------------------------------------
 Center     Atomic      Atomic             Coordinates (Angstroms)
 Number     Number       Type             X           Y           Z
 ---------------------------------------------------------------------
      1          5           0        0.871395    0.000000    0.000000
      2          1           0        1.448055    1.036062    0.000000
      3          1           0        1.448057   -1.036061    0.000000
      4          5           0       -0.871395    0.000000    0.000000
      5          1           0       -1.448057   -1.036061    0.000000
      6          1           0        0.000000   -0.000002    0.977955
      7          1           0       -1.448055    1.036062    0.000000
      8          1           0        0.000000   -0.000001   -0.977955
 ---------------------------------------------------------------------
                    Distance matrix (angstroms):
                    1          2          3          4          5
     1  B    0.000000
     2  H    1.185732   0.000000
     3  H    1.185732   2.072123   0.000000
     4  B    1.742790   2.540329   2.540331   0.000000
     5  H    2.540331   3.561061   2.896114   1.185732   0.000000
     6  H    1.309857   2.031425   2.031424   1.309857   2.031424
     7  H    2.540329   2.896110   3.561061   1.185732   2.072123
     8  H    1.309857   2.031425   2.031424   1.309857   2.031424
                    6          7          8
     6  H    0.000000
     7  H    2.031425   0.000000
     8  H    1.955910   2.031425   0.000000
 Symmetry turned off by external request.
 Stoichiometry    B2H6(1-,2)
 Framework group  C2V[SGV(B2H4),SGV'(H2)]
 Deg. of freedom     7
 Full point group                 C2V     NOp   4
 Rotational constants (GHZ):          80.7953372          18.6485126          17.1316289
 General basis read from cards:  (5D, 7F)
   324 basis functions,   444 primitive gaussians,   386 cartesian basis functions
     9 alpha electrons        8 beta electrons
       nuclear repulsion energy        32.2907437479 Hartrees.
 NAtoms=    8 NActive=    8 NUniq=    8 SFac= 1.00D+00 NAtFMM=   60 NAOKFM=F Big=F
 Integral buffers will be    131072 words long.
 Raffenetti 2 integral format.
 Two-electron integral symmetry is turned off.
 One-electron integrals computed using PRISM.
 NBasis=   324 RedAO= T EigKep=  2.35D-06  NBF=   324
 NBsUse=   324 1.00D-06 EigRej= -1.00D+00 NBFU=   324
 ExpMin= 2.99D-02 ExpMax= 4.64D+04 ExpMxC= 4.48D+02 IAcc=3 IRadAn=         5 AccDes= 0.00D+00
 Harris functional with IExCor= 1009 and IRadAn=       5 diagonalized for initial guess.
 HarFok:  IExCor= 1009 AccDes= 0.00D+00 IRadAn=         5 IDoV= 1 UseB2=F ITyADJ=14
 ICtDFT=  3500011 ScaDFX=  1.000000  1.000000  1.000000  1.000000
 FoFCou: FMM=F IPFlag=           0 FMFlag=      100000 FMFlg1=           0
         NFxFlg=           0 DoJE=T BraDBF=F KetDBF=T FulRan=T
         wScrn=  0.000000 ICntrl=       500 IOpCl=  0 I1Cent=   200000004 NGrid=           0
         NMat0=    1 NMatS0=      1 NMatT0=    0 NMatD0=    1 NMtDS0=    0 NMtDT0=    0
 Symmetry not used in FoFCou.
 Initial guess <Sx>= 0.0000 <Sy>= 0.0000 <Sz>= 0.5000 <S**2>= 0.7500 S= 0.5000
 Keep R1 and R2 ints in memory in canonical form, NReq=2801055991.
 Requested convergence on RMS density matrix=1.00D-08 within 128 cycles.
 Requested convergence on MAX density matrix=1.00D-06.
 Requested convergence on             energy=1.00D-06.
 No special actions if energy rises.
 SCF Done:  E(UPBE0DH) =  -53.1428332495     A.U. after   14 cycles
            NFock= 14  Conv=0.59D-08     -V/T= 2.0027
 <Sx>= 0.0000 <Sy>= 0.0000 <Sz>= 0.5000 <S**2>= 0.7561 S= 0.5031
 <L.S>=  0.00000000000    
 Annihilation of the first spin contaminant:
 S**2 before annihilation     0.7561,   after     0.7500
 QCSCF skips out because SCF is already converged.
 DoSCS=T DFT=T ScalE2(SS,OS)=  0.125000  0.125000
 ExpMin= 2.99D-02 ExpMax= 4.64D+04 ExpMxC= 4.48D+02 IAcc=3 IRadAn=         5 AccDes= 0.00D+00
 HarFok:  IExCor=  205 AccDes= 0.00D+00 IRadAn=         5 IDoV=-2 UseB2=F ITyADJ=14
 ICtDFT= 12500011 ScaDFX=  1.000000  1.000000  1.000000  1.000000
 Range of M.O.s used for correlation:     3   324
 NBasis=   324 NAE=     9 NBE=     8 NFC=     2 NFV=     0
 NROrb=    322 NOA=     7 NOB=     6 NVA=   315 NVB=   316

 **** Warning!!: The largest alpha MO coefficient is  0.21587327D+03


 **** Warning!!: The smallest alpha delta epsilon is  0.59839214D-01


 **** Warning!!: The largest beta MO coefficient is  0.21159098D+03

 DoSCS=T DFT=T ScalE2(SS,OS)=  0.125000  0.125000
 Fully direct method using O(OVN) memory.
 JobTyp=2 Pass  1:  I=   1 to   7 NPSUse= 16 ParTrn=T ParDer=T DoDerP=F.
 JobTyp=3 Pass  1:  I=   1 to   6 NPSUse= 16 ParTrn=T ParDer=T DoDerP=F.
 Spin components of T(2) and E(2):
     alpha-alpha T2 =       0.2931320529D-01 E2=     -0.5835250356D-02
     alpha-beta  T2 =       0.1428570015D+00 E2=     -0.3845959671D-01
     beta-beta   T2 =       0.1381339201D-01 E2=     -0.3259589062D-02
 (S**2,0)=  0.75614D+00           (S**2,1)=  0.74628D+00
 Scaling Projection term by:   0.125000
 E(PUHF)=      -0.53144564849D+02        E(PMP2)=      -0.53190430683D+02
 E2(PBE0DH) =    -0.4755443613D-01 E(PBE0DH) =    -0.53190387685630D+02

 **********************************************************************

            Population analysis using the SCF Density.

 **********************************************************************

 Alpha  occ. eigenvalues --   -6.82526  -6.82487  -0.53631  -0.32448  -0.27284
 Alpha  occ. eigenvalues --   -0.23547  -0.21380  -0.17031   0.07722
 Alpha virt. eigenvalues --    0.13706   0.14611   0.18754   0.19228   0.21074
 Alpha virt. eigenvalues --    0.21615   0.22029   0.22238   0.24519   0.25449
 Alpha virt. eigenvalues --    0.26092   0.26912   0.27093   0.27336   0.28104
 Alpha virt. eigenvalues --    0.29537   0.32245   0.34013   0.34981   0.36730
 Alpha virt. eigenvalues --    0.36929   0.38863   0.40533   0.41957   0.41982
 Alpha virt. eigenvalues --    0.42116   0.42988   0.43056   0.43498   0.45028
 Alpha virt. eigenvalues --    0.45560   0.46551   0.47398   0.48477   0.48981
 Alpha virt. eigenvalues --    0.51295   0.52050   0.53655   0.53802   0.54167
 Alpha virt. eigenvalues --    0.56104   0.58177   0.58490   0.59390   0.61462
 Alpha virt. eigenvalues --    0.62291   0.62922   0.68888   0.71383   0.72712
 Alpha virt. eigenvalues --    0.73806   0.77349   0.78612   0.79548   0.82392
 Alpha virt. eigenvalues --    0.82650   0.82726   0.87464   0.89045   0.89581
 Alpha virt. eigenvalues --    0.92191   0.92251   0.97975   0.99536   1.00606
 Alpha virt. eigenvalues --    1.04916   1.06210   1.08491   1.11601   1.14101
 Alpha virt. eigenvalues --    1.14204   1.18515   1.19714   1.21024   1.24906
 Alpha virt. eigenvalues --    1.27704   1.28542   1.33218   1.35225   1.35584
 Alpha virt. eigenvalues --    1.39267   1.41349   1.42715   1.45203   1.45784
 Alpha virt. eigenvalues --    1.46571   1.47103   1.47933   1.52962   1.53157
 Alpha virt. eigenvalues --    1.56366   1.60300   1.61790   1.65364   1.65963
 Alpha virt. eigenvalues --    1.67383   1.69539   1.73408   1.73495   1.76875
 Alpha virt. eigenvalues --    1.82542   1.86384   1.86424   1.86584   1.88092
 Alpha virt. eigenvalues --    1.97676   1.98344   2.01350   2.02986   2.05385
 Alpha virt. eigenvalues --    2.07123   2.11110   2.11667   2.16836   2.35770
 Alpha virt. eigenvalues --    2.39505   2.46396   2.46768   2.48350   2.51395
 Alpha virt. eigenvalues --    2.57495   2.58747   2.61865   2.65409   2.70900
 Alpha virt. eigenvalues --    2.77467   2.80150   2.81737   2.87166   2.88374
 Alpha virt. eigenvalues --    2.89043   2.89822   2.92962   2.94046   2.96014
 Alpha virt. eigenvalues --    2.96758   2.96796   2.97976   3.03318   3.05425
 Alpha virt. eigenvalues --    3.06248   3.06393   3.08387   3.16084   3.19382
 Alpha virt. eigenvalues --    3.20214   3.25901   3.27833   3.34041   3.35300
 Alpha virt. eigenvalues --    3.35379   3.42013   3.42803   3.43104   3.45685
 Alpha virt. eigenvalues --    3.49864   3.56033   3.58930   3.61465   3.62344
 Alpha virt. eigenvalues --    3.66402   3.72766   3.74836   3.77323   3.77333
 Alpha virt. eigenvalues --    3.82873   3.89854   3.91221   3.91598   3.97001
 Alpha virt. eigenvalues --    4.02758   4.10509   4.11205   4.12152   4.14113
 Alpha virt. eigenvalues --    4.19632   4.21673   4.25442   4.29949   4.38942
 Alpha virt. eigenvalues --    4.43210   4.44951   4.46318   4.48324   4.53198
 Alpha virt. eigenvalues --    4.62195   4.67594   4.69498   4.74031   4.74214
 Alpha virt. eigenvalues --    4.82655   4.84878   4.87002   4.89967   4.94293
 Alpha virt. eigenvalues --    4.94829   5.11726   5.12568   5.16364   5.17495
 Alpha virt. eigenvalues --    5.18930   5.19874   5.21294   5.22885   5.36572
 Alpha virt. eigenvalues --    5.40660   5.48205   5.52214   5.52808   5.79502
 Alpha virt. eigenvalues --    5.90471   5.96736   6.09925   6.16077   6.26065
 Alpha virt. eigenvalues --    6.32123   6.35394   6.38183   6.41821   6.42353
 Alpha virt. eigenvalues --    6.49726   6.55147   6.79323   6.80071   6.80255
 Alpha virt. eigenvalues --    6.82883   6.88073   6.91316   7.05258   7.13497
 Alpha virt. eigenvalues --    7.14072   7.17942   7.20823   7.23207   7.26571
 Alpha virt. eigenvalues --    7.36600   7.38239   7.46836   7.48309   7.52310
 Alpha virt. eigenvalues --    7.62484   7.66694   7.68292   7.69199   7.70660
 Alpha virt. eigenvalues --    7.74205   7.74478   7.81371   7.81405   7.89607
 Alpha virt. eigenvalues --    7.95614   8.04237   8.07033   8.08467   8.09189
 Alpha virt. eigenvalues --    8.11238   8.12520   8.19157   8.19406   8.27929
 Alpha virt. eigenvalues --    8.29104   8.35298   8.44429   8.54621   8.60637
 Alpha virt. eigenvalues --    8.63169   8.63643   8.64375   8.67365   8.69270
 Alpha virt. eigenvalues --    8.75634   8.80041   8.82264   8.95904   8.96302
 Alpha virt. eigenvalues --    8.97436   8.99457   9.01373   9.01383   9.08117
 Alpha virt. eigenvalues --    9.10538   9.11568   9.27791   9.34232   9.37145
 Alpha virt. eigenvalues --    9.37557   9.40133   9.41935   9.43868   9.50963
 Alpha virt. eigenvalues --    9.53956   9.59638   9.60616   9.62249   9.66163
 Alpha virt. eigenvalues --    9.75616   9.80224   9.81882   9.86467   9.90286
 Alpha virt. eigenvalues --    9.98214  10.09002  10.10190  10.10630  10.15723
 Alpha virt. eigenvalues --   10.18224  10.24968  10.54583  10.86351  11.76874
 Alpha virt. eigenvalues --   11.84018  20.90257  21.16716 104.19717 104.45436
  Beta  occ. eigenvalues --   -6.82081  -6.82036  -0.52476  -0.30629  -0.24650
  Beta  occ. eigenvalues --   -0.23299  -0.21047  -0.16820
  Beta virt. eigenvalues --    0.14736   0.15633   0.19765   0.20458   0.20680
  Beta virt. eigenvalues --    0.21680   0.22231   0.22781   0.23128   0.26325
  Beta virt. eigenvalues --    0.26847   0.27459   0.28279   0.28829   0.29253
  Beta virt. eigenvalues --    0.29533   0.30450   0.32860   0.35341   0.35705
  Beta virt. eigenvalues --    0.37257   0.37325   0.39973   0.41377   0.42317
  Beta virt. eigenvalues --    0.42631   0.43618   0.43680   0.43895   0.44354
  Beta virt. eigenvalues --    0.45174   0.45972   0.46975   0.48574   0.48943
  Beta virt. eigenvalues --    0.50186   0.52582   0.54335   0.54492   0.54848
  Beta virt. eigenvalues --    0.55936   0.56417   0.58743   0.59381   0.59615
  Beta virt. eigenvalues --    0.62852   0.63024   0.63320   0.69531   0.72344
  Beta virt. eigenvalues --    0.73010   0.74707   0.78694   0.78951   0.81139
  Beta virt. eigenvalues --    0.83403   0.83679   0.83841   0.88098   0.90227
  Beta virt. eigenvalues --    0.90838   0.92413   0.93689   1.00091   1.00307
  Beta virt. eigenvalues --    1.00870   1.05503   1.06618   1.08924   1.13050
  Beta virt. eigenvalues --    1.14238   1.15251   1.19326   1.20934   1.21123
  Beta virt. eigenvalues --    1.24973   1.28611   1.28834   1.33396   1.36074
  Beta virt. eigenvalues --    1.36144   1.39445   1.41688   1.43388   1.46166
  Beta virt. eigenvalues --    1.46805   1.47454   1.48072   1.48617   1.53220
  Beta virt. eigenvalues --    1.54328   1.56858   1.61601   1.62537   1.66394
  Beta virt. eigenvalues --    1.67584   1.68629   1.70873   1.73639   1.74727
  Beta virt. eigenvalues --    1.78092   1.83212   1.86982   1.87111   1.87973
  Beta virt. eigenvalues --    1.89286   1.98464   1.98647   2.02126   2.03363
  Beta virt. eigenvalues --    2.06332   2.09090   2.11701   2.12368   2.17890
  Beta virt. eigenvalues --    2.36862   2.39695   2.47156   2.47253   2.49838
  Beta virt. eigenvalues --    2.52627   2.57713   2.59273   2.62096   2.65671
  Beta virt. eigenvalues --    2.71163   2.78108   2.80422   2.82247   2.87369
  Beta virt. eigenvalues --    2.88520   2.89487   2.89968   2.93451   2.94826
  Beta virt. eigenvalues --    2.96179   2.97071   2.97221   2.98338   3.03203
  Beta virt. eigenvalues --    3.06575   3.06596   3.07042   3.08598   3.16792
  Beta virt. eigenvalues --    3.19517   3.20457   3.26114   3.28078   3.34385
  Beta virt. eigenvalues --    3.35860   3.36605   3.42746   3.43147   3.43320
  Beta virt. eigenvalues --    3.45895   3.50293   3.56391   3.59575   3.61535
  Beta virt. eigenvalues --    3.63261   3.67413   3.73180   3.75566   3.77397
  Beta virt. eigenvalues --    3.78112   3.83678   3.89967   3.91681   3.92549
  Beta virt. eigenvalues --    3.97343   4.04412   4.11843   4.12410   4.13319
  Beta virt. eigenvalues --    4.14808   4.20900   4.22237   4.26415   4.30908
  Beta virt. eigenvalues --    4.40166   4.44071   4.46371   4.46898   4.48705
  Beta virt. eigenvalues --    4.53976   4.63170   4.68776   4.70211   4.74878
  Beta virt. eigenvalues --    4.75539   4.83476   4.85226   4.87875   4.90931
  Beta virt. eigenvalues --    4.95395   4.95843   5.13380   5.13537   5.17367
  Beta virt. eigenvalues --    5.17568   5.20002   5.20551   5.21626   5.24109
  Beta virt. eigenvalues --    5.37653   5.40831   5.48842   5.52588   5.53144
  Beta virt. eigenvalues --    5.79936   5.91276   5.97167   6.10468   6.16146
  Beta virt. eigenvalues --    6.26760   6.32200   6.35539   6.38372   6.42066
  Beta virt. eigenvalues --    6.42512   6.49872   6.55270   6.79358   6.80309
  Beta virt. eigenvalues --    6.80562   6.82994   6.88229   6.91297   7.05229
  Beta virt. eigenvalues --    7.13421   7.14064   7.17919   7.21221   7.23340
  Beta virt. eigenvalues --    7.26604   7.36695   7.38170   7.46929   7.48513
  Beta virt. eigenvalues --    7.52468   7.62409   7.66968   7.68499   7.69436
  Beta virt. eigenvalues --    7.70685   7.74202   7.74414   7.81404   7.81540
  Beta virt. eigenvalues --    7.89515   7.95696   8.04149   8.07044   8.08318
  Beta virt. eigenvalues --    8.09535   8.11303   8.12551   8.19185   8.20080
  Beta virt. eigenvalues --    8.28080   8.29151   8.35691   8.44312   8.54503
  Beta virt. eigenvalues --    8.60502   8.63099   8.63600   8.64208   8.67295
  Beta virt. eigenvalues --    8.69299   8.75483   8.79852   8.82116   8.95892
  Beta virt. eigenvalues --    8.95893   8.97584   8.99696   9.01450   9.01563
  Beta virt. eigenvalues --    9.07981   9.10418   9.11418   9.27780   9.34109
  Beta virt. eigenvalues --    9.36953   9.37526   9.39981   9.42089   9.43709
  Beta virt. eigenvalues --    9.50815   9.53703   9.59457   9.60495   9.62004
  Beta virt. eigenvalues --    9.66232   9.75485   9.80206   9.81774   9.86255
  Beta virt. eigenvalues --    9.90287   9.98320  10.08947  10.10482  10.10589
  Beta virt. eigenvalues --   10.15626  10.18103  10.24878  10.54581  10.86435
  Beta virt. eigenvalues --   11.77074  11.84241  20.90956  21.17371 104.19892
  Beta virt. eigenvalues --  104.45607
          Condensed to atoms (all electrons):
               1          2          3          4          5          6
     1  B    9.982472   0.307063   0.307062  -4.999331   0.047018  -0.021081
     2  H    0.307063   0.702504   0.002274   0.047017   0.007904   0.000922
     3  H    0.307062   0.002274   0.702504   0.047018   0.005484   0.000923
     4  B   -4.999331   0.047017   0.047018   9.982472   0.307062  -0.021081
     5  H    0.047018   0.007904   0.005484   0.307062   0.702504   0.000923
     6  H   -0.021081   0.000922   0.000923  -0.021081   0.000923   0.927411
     7  H    0.047017   0.005484   0.007904   0.307063   0.002274   0.000922
     8  H   -0.021081   0.000922   0.000923  -0.021081   0.000923  -0.186261
               7          8
     1  B    0.047017  -0.021081
     2  H    0.005484   0.000922
     3  H    0.007904   0.000923
     4  B    0.307063  -0.021081
     5  H    0.002274   0.000923
     6  H    0.000922  -0.186261
     7  H    0.702504   0.000922
     8  H    0.000922   0.927411
          Atomic-Atomic Spin Densities.
               1          2          3          4          5          6
     1  B    6.161028  -0.170499  -0.170500  -4.571230   0.133043  -0.213551
     2  H   -0.170499  -0.086002  -0.009112   0.133042  -0.002826   0.009013
     3  H   -0.170500  -0.009112  -0.086002   0.133043  -0.007551   0.009013
     4  B   -4.571230   0.133042   0.133043   6.161028  -0.170500  -0.213551
     5  H    0.133043  -0.002826  -0.007551  -0.170500  -0.086002   0.009013
     6  H   -0.213551   0.009013   0.009013  -0.213551   0.009013   0.171295
     7  H    0.133042  -0.007551  -0.002826  -0.170499  -0.009112   0.009013
     8  H   -0.213551   0.009013   0.009013  -0.213551   0.009013  -0.118179
               7          8
     1  B    0.133042  -0.213551
     2  H   -0.007551   0.009013
     3  H   -0.002826   0.009013
     4  B   -0.170499  -0.213551
     5  H   -0.009112   0.009013
     6  H    0.009013  -0.118179
     7  H   -0.086002   0.009013
     8  H    0.009013   0.171295
 Mulliken charges and spin densities:
               1          2
     1  B   -0.649139   1.087782
     2  H   -0.074092  -0.124923
     3  H   -0.074091  -0.124924
     4  B   -0.649139   1.087782
     5  H   -0.074091  -0.124924
     6  H    0.297322  -0.337935
     7  H   -0.074092  -0.124923
     8  H    0.297322  -0.337935
 Sum of Mulliken charges =  -1.00000   1.00000
 Mulliken charges and spin densities with hydrogens summed into heavy atoms:
               1          2
     1  B   -0.202678   0.162065
     4  B   -0.797322   0.837935
 Electronic spatial extent (au):  <R**2>=            142.2959
 Charge=             -1.0000 electrons
 Dipole moment (field-independent basis, Debye):
    X=              0.0000    Y=             -0.0000    Z=             -0.0000  Tot=              0.0000
 Quadrupole moment (field-independent basis, Debye-Ang):
   XX=            -34.5909   YY=            -24.0082   ZZ=            -26.2239
   XY=              0.0000   XZ=             -0.0000   YZ=             -0.0000
 Traceless Quadrupole moment (field-independent basis, Debye-Ang):
   XX=             -6.3166   YY=              4.2661   ZZ=              2.0504
   XY=              0.0000   XZ=             -0.0000   YZ=             -0.0000
 Octapole moment (field-independent basis, Debye-Ang**2):
  XXX=              0.0000  YYY=              0.0000  ZZZ=             -0.0000  XYY=             -0.0000
  XXY=              0.0000  XXZ=             -0.0000  XZZ=              0.0000  YZZ=              0.0000
  YYZ=             -0.0000  XYZ=              0.0000
 Hexadecapole moment (field-independent basis, Debye-Ang**3):
 XXXX=           -229.1220 YYYY=            -71.4747 ZZZZ=            -92.2964 XXXY=              0.0000
 XXXZ=             -0.0000 YYYX=             -0.0000 YYYZ=              0.0000 ZZZX=             -0.0000
 ZZZY=             -0.0000 XXYY=            -51.5773 XXZZ=            -69.9835 YYZZ=            -27.4711
 XXYZ=             -0.0000 YYXZ=             -0.0000 ZZXY=              0.0000
 N-N= 3.229074374793D+01 E-N=-1.893574427936D+02  KE= 5.300177489173D+01
 1\1\GINC-N002\SP\UPBE0DH-FC\Gen\B2H6(1-,2)\JORGE\06-Apr-2020\0\\# UPBE
 0/Gen 5D NoSymm SCF=(Tight,MaxCyc=500,NoVarAcc,XQC) Int=(Grid=UltraFin
 e,Acc2e=12)\\Single point of B2H6^-1 in vacuo for dual descriptor\\-1,
 2\B,0,0.871395,0.,0.\H,0,1.448055,1.036062,0.\H,0,1.448057,-1.036061,0
 .\B,0,-0.871395,0.,0.\H,0,-1.448057,-1.036061,0.\H,0,0.,-0.000002,0.97
 7955\H,0,-1.448055,1.036062,0.\H,0,0.,-0.000001,-0.977955\\Version=ES6
 4L-G16RevB.01\HF=-53.1428332\MP2=-53.1903877\PUHF=-53.1445648\PMP2-0=-
 53.1904307\S2=0.756138\S2-1=0.746275\S2A=0.750027\RMSD=5.886e-09\PG=C0
 2V [SGV(B2H4),SGV'(H2)]\\@


 IF YOU WISH TO UNDERSTAND THE FRAGRANCE OF THE ROSE, 
 OR THE TENACITY OF THE OAK; 
 IF YOU ARE NOT SATISFIED UNTIL YOU KNOW THE SECRET PATHS 
 BY WHICH THE SUNSHINE AND THE AIR ACHIEVE THESE WONDERS; 
 IF YOU WISH TO SEE THE PATTERN WHICH UNDERLIES ONE LARGE FIELD OF 
 HUMAN EXPERIENCE AND HUMAN MEASUREMENT, THEN TAKE UP CHEMISTRY.

                                         -- C. A. COULSON, 1973.
 Job cpu time:       0 days  0 hours 16 minutes 59.8 seconds.
 Elapsed time:       0 days  0 hours  2 minutes  6.5 seconds.
 File lengths (MBytes):  RWF=     69 Int=      0 D2E=      0 Chk=     10 Scr=      1
 Normal termination of Gaussian 16 at Mon Apr  6 22:36:56 2020.
