 Entering Gaussian System, Link 0=g16
 Initial command:
 /opt/g16/l1.exe "/scratch/451/Gau-278392.inp" -scrdir="/scratch/451/"
 Entering Link 1 = /opt/g16/l1.exe PID=    278393.
  
 Copyright (c) 1988-2017, Gaussian, Inc.  All Rights Reserved.
  
 This is part of the Gaussian(R) 16 program.  It is based on
 the Gaussian(R) 09 system (copyright 2009, Gaussian, Inc.),
 the Gaussian(R) 03 system (copyright 2003, Gaussian, Inc.),
 the Gaussian(R) 98 system (copyright 1998, Gaussian, Inc.),
 the Gaussian(R) 94 system (copyright 1995, Gaussian, Inc.),
 the Gaussian 92(TM) system (copyright 1992, Gaussian, Inc.),
 the Gaussian 90(TM) system (copyright 1990, Gaussian, Inc.),
 the Gaussian 88(TM) system (copyright 1988, Gaussian, Inc.),
 the Gaussian 86(TM) system (copyright 1986, Carnegie Mellon
 University), and the Gaussian 82(TM) system (copyright 1983,
 Carnegie Mellon University). Gaussian is a federally registered
 trademark of Gaussian, Inc.
  
 This software contains proprietary and confidential information,
 including trade secrets, belonging to Gaussian, Inc.
  
 This software is provided under written license and may be
 used, copied, transmitted, or stored only in accord with that
 written license.
  
 The following legend is applicable only to US Government
 contracts under FAR:
  
                    RESTRICTED RIGHTS LEGEND
  
 Use, reproduction and disclosure by the US Government is
 subject to restrictions as set forth in subparagraphs (a)
 and (c) of the Commercial Computer Software - Restricted
 Rights clause in FAR 52.227-19.
  
 Gaussian, Inc.
 340 Quinnipiac St., Bldg. 40, Wallingford CT 06492
  
  
 ---------------------------------------------------------------
 Warning -- This program may not be used in any manner that
 competes with the business of Gaussian, Inc. or will provide
 assistance to any competitor of Gaussian, Inc.  The licensee
 of this program is prohibited from giving any competitor of
 Gaussian, Inc. access to this program.  By using this program,
 the user acknowledges that Gaussian, Inc. is engaged in the
 business of creating and licensing software in the field of
 computational chemistry and represents and warrants to the
 licensee that it is not a competitor of Gaussian, Inc. and that
 it will not use this program in any manner prohibited above.
 ---------------------------------------------------------------
  

 Cite this work as:
 Gaussian 16, Revision B.01,
 M. J. Frisch, G. W. Trucks, H. B. Schlegel, G. E. Scuseria, 
 M. A. Robb, J. R. Cheeseman, G. Scalmani, V. Barone, 
 G. A. Petersson, H. Nakatsuji, X. Li, M. Caricato, A. V. Marenich, 
 J. Bloino, B. G. Janesko, R. Gomperts, B. Mennucci, H. P. Hratchian, 
 J. V. Ortiz, A. F. Izmaylov, J. L. Sonnenberg, D. Williams-Young, 
 F. Ding, F. Lipparini, F. Egidi, J. Goings, B. Peng, A. Petrone, 
 T. Henderson, D. Ranasinghe, V. G. Zakrzewski, J. Gao, N. Rega, 
 G. Zheng, W. Liang, M. Hada, M. Ehara, K. Toyota, R. Fukuda, 
 J. Hasegawa, M. Ishida, T. Nakajima, Y. Honda, O. Kitao, H. Nakai, 
 T. Vreven, K. Throssell, J. A. Montgomery, Jr., J. E. Peralta, 
 F. Ogliaro, M. J. Bearpark, J. J. Heyd, E. N. Brothers, K. N. Kudin, 
 V. N. Staroverov, T. A. Keith, R. Kobayashi, J. Normand, 
 K. Raghavachari, A. P. Rendell, J. C. Burant, S. S. Iyengar, 
 J. Tomasi, M. Cossi, J. M. Millam, M. Klene, C. Adamo, R. Cammi, 
 J. W. Ochterski, R. L. Martin, K. Morokuma, O. Farkas, 
 J. B. Foresman, and D. J. Fox, Gaussian, Inc., Wallingford CT, 2016.
 
 ******************************************
 Gaussian 16:  ES64L-G16RevB.01 20-Dec-2017
                 2-Apr-2020 
 ******************************************
 %nprocshared=16
 Will use up to   16 processors via shared memory.
 %mem=24GB
 %chk=B9Be2C_N.chk
 ----------------------------------------------------------------------
 # PBE0/Gen 5D NoSymm SCF=(Tight,MaxCyc=500,NoVarAcc,XQC) Int=(Grid=Ult
 raFine,Acc2e=12)
 ----------------------------------------------------------------------
 1/38=1,172=1/1;
 2/12=2,15=1,17=6,18=5,40=1/2;
 3/5=7,8=1,11=9,25=1,27=12,30=1,74=-78,75=-5/1,2,3;
 4//1;
 5/5=2,7=500,8=3,13=1,32=2,38=1,87=12/2,8;
 8/10=1,87=12/1;
 9/16=-3,87=12/6;
 6/7=2,8=2,9=2,10=2,87=12/1;
 99/5=1,9=1/99;
 ----------------------------------
 Single point of B9Be2C^-1 in vacuo
 ----------------------------------
 Symbolic Z-matrix:
 Charge = -1 Multiplicity = 1
 6                    -0.70445   2.31054   0. 
 5                     0.71866   2.46814   0. 
 5                     0.        0.96539   0. 
 5                     2.51894  -0.62811   0. 
 4                    -1.93085   1.14025   0. 
 4                     2.00671   1.133     0. 
 5                     0.87757  -0.46831   0. 
 5                    -0.00054  -2.01375   0. 
 5                     1.63424  -1.90372   0. 
 5                    -1.62723  -1.90521   0. 
 5                    -0.84426  -0.49497   0. 
 5                    -2.49273  -0.6107    0. 
 
                          Input orientation:                          
 ---------------------------------------------------------------------
 Center     Atomic      Atomic             Coordinates (Angstroms)
 Number     Number       Type             X           Y           Z
 ---------------------------------------------------------------------
      1          6           0       -0.704454    2.310537    0.000000
      2          5           0        0.718664    2.468135    0.000000
      3          5           0        0.000000    0.965394    0.000000
      4          5           0        2.518942   -0.628113    0.000000
      5          4           0       -1.930845    1.140251    0.000000
      6          4           0        2.006708    1.132999    0.000000
      7          5           0        0.877567   -0.468308    0.000000
      8          5           0       -0.000539   -2.013751    0.000000
      9          5           0        1.634238   -1.903721    0.000000
     10          5           0       -1.627225   -1.905212    0.000000
     11          5           0       -0.844259   -0.494973    0.000000
     12          5           0       -2.492733   -0.610697    0.000000
 ---------------------------------------------------------------------
                    Distance matrix (angstroms):
                    1          2          3          4          5
     1  C    0.000000
     2  B    1.431818   0.000000
     3  B    1.518442   1.665746   0.000000
     4  B    4.361874   3.581585   2.980660   0.000000
     5  Be   1.695171   2.963642   1.938746   4.788289   0.000000
     6  Be   2.955841   1.855167   2.013695   1.834094   3.937560
     7  B    3.197619   2.940739   1.680960   1.649136   3.236455
     8  B    4.381206   4.539224   2.979145   2.875374   3.697811
     9  B    4.819694   4.466699   3.301902   1.552378   4.687812
    10  B    4.315559   4.962798   3.299733   4.338396   3.060560
    11  B    2.808991   3.350035   1.686845   3.365835   1.963320
    12  B    3.425135   4.448851   2.949200   5.011705   1.838896
                    6          7          8          9         10
     6  Be   0.000000
     7  B    1.959373   0.000000
     8  B    3.732436   1.777488   0.000000
     9  B    3.059477   1.622640   1.638476   0.000000
    10  B    4.736686   2.887677   1.630303   3.261463   0.000000
    11  B    3.283033   1.722032   1.737397   2.850880   1.613013
    12  B    4.825499   3.373306   2.859999   4.324789   1.557200
                   11         12
    11  B    0.000000
    12  B    1.652531   0.000000
 Symmetry turned off by external request.
 Stoichiometry    CB9Be2(1-)
 Framework group  CS[SG(CB9Be2)]
 Deg. of freedom    21
 Full point group                 CS      NOp   2
 Rotational constants (GHZ):           1.7150781           1.6695690           0.8460088
 General basis read from cards:  (5D, 7F)
   702 basis functions,  1106 primitive gaussians,   872 cartesian basis functions
    30 alpha electrons       30 beta electrons
       nuclear repulsion energy       331.4079413895 Hartrees.
 NAtoms=   12 NActive=   12 NUniq=   12 SFac= 1.00D+00 NAtFMM=   60 NAOKFM=F Big=F
 Integral buffers will be    131072 words long.
 Regular integral format.
 Two-electron integral symmetry is turned off.
 One-electron integrals computed using PRISM.
 NBasis=   702 RedAO= T EigKep=  1.10D-06  NBF=   702
 NBsUse=   694 1.00D-06 EigRej=  9.73D-07 NBFU=   694
 ExpMin= 2.99D-02 ExpMax= 6.70D+04 ExpMxC= 6.47D+02 IAcc=3 IRadAn=         5 AccDes= 0.00D+00
 Harris functional with IExCor= 1009 and IRadAn=       5 diagonalized for initial guess.
 HarFok:  IExCor= 1009 AccDes= 0.00D+00 IRadAn=         5 IDoV= 1 UseB2=F ITyADJ=14
 ICtDFT=  3500011 ScaDFX=  1.000000  1.000000  1.000000  1.000000
 FoFCou: FMM=F IPFlag=           0 FMFlag=      100000 FMFlg1=           0
         NFxFlg=           0 DoJE=T BraDBF=F KetDBF=T FulRan=T
         wScrn=  0.000000 ICntrl=       500 IOpCl=  0 I1Cent=   200000004 NGrid=           0
         NMat0=    1 NMatS0=      1 NMatT0=    0 NMatD0=    1 NMtDS0=    0 NMtDT0=    0
 Symmetry not used in FoFCou.
 Requested convergence on RMS density matrix=1.00D-08 within 128 cycles.
 Requested convergence on MAX density matrix=1.00D-06.
 Requested convergence on             energy=1.00D-06.
 No special actions if energy rises.
 SCF Done:  E(RPBE0DH) =  -290.686944074     A.U. after   14 cycles
            NFock= 14  Conv=0.78D-08     -V/T= 2.0050
 QCSCF skips out because SCF is already converged.
 DoSCS=T DFT=T ScalE2(SS,OS)=  0.125000  0.125000
 ExpMin= 2.99D-02 ExpMax= 6.70D+04 ExpMxC= 6.47D+02 IAcc=3 IRadAn=         5 AccDes= 0.00D+00
 HarFok:  IExCor=  205 AccDes= 0.00D+00 IRadAn=         5 IDoV=-2 UseB2=F ITyADJ=14
 ICtDFT= 12500011 ScaDFX=  1.000000  1.000000  1.000000  1.000000
 Range of M.O.s used for correlation:    13   694
 NBasis=   702 NAE=    30 NBE=    30 NFC=    12 NFV=     0
 NROrb=    682 NOA=    18 NOB=    18 NVA=   664 NVB=   664

 **** Warning!!: The largest alpha MO coefficient is  0.14994764D+03

 DoSCS=T DFT=T ScalE2(SS,OS)=  0.125000  0.125000
 Fully direct method using O(OVN) memory.
 JobTyp=1 Pass  1:  I=   1 to  18 NPSUse= 16 ParTrn=T ParDer=T DoDerP=F.
 Spin components of T(2) and E(2):
     alpha-alpha T2 =       0.1567965541D+00 E2=     -0.2658429603D-01
     alpha-beta  T2 =       0.7469550799D+00 E2=     -0.1419282009D+00
     beta-beta   T2 =       0.1567965541D+00 E2=     -0.2658429603D-01
 E2(PBE0DH) =    -0.1950967929D+00 E(PBE0DH) =    -0.29088204086740D+03

 **********************************************************************

            Population analysis using the SCF Density.

 **********************************************************************

 Alpha  occ. eigenvalues --  -10.44285  -6.95051  -6.94373  -6.93396  -6.93156
 Alpha  occ. eigenvalues --   -6.92537  -6.91500  -6.91352  -6.91101  -6.90954
 Alpha  occ. eigenvalues --   -4.11739  -4.11729  -0.72416  -0.66931  -0.58265
 Alpha  occ. eigenvalues --   -0.49973  -0.45359  -0.42820  -0.33041  -0.28879
 Alpha  occ. eigenvalues --   -0.26963  -0.24736  -0.22565  -0.20760  -0.20228
 Alpha  occ. eigenvalues --   -0.19429  -0.16105  -0.13832  -0.13449  -0.12213
 Alpha virt. eigenvalues --    0.06549   0.08348   0.09475   0.09560   0.10988
 Alpha virt. eigenvalues --    0.11647   0.11986   0.13185   0.13581   0.13998
 Alpha virt. eigenvalues --    0.15053   0.15486   0.15941   0.16703   0.16903
 Alpha virt. eigenvalues --    0.17220   0.17460   0.18014   0.18338   0.19471
 Alpha virt. eigenvalues --    0.19794   0.20811   0.21579   0.21718   0.21946
 Alpha virt. eigenvalues --    0.22238   0.22684   0.23147   0.23372   0.23800
 Alpha virt. eigenvalues --    0.23877   0.24213   0.24307   0.24985   0.25178
 Alpha virt. eigenvalues --    0.25578   0.25881   0.26339   0.26533   0.27352
 Alpha virt. eigenvalues --    0.27575   0.28107   0.28111   0.28701   0.28841
 Alpha virt. eigenvalues --    0.28899   0.29811   0.29969   0.30393   0.30660
 Alpha virt. eigenvalues --    0.30666   0.31209   0.31560   0.31870   0.32186
 Alpha virt. eigenvalues --    0.32407   0.33065   0.33315   0.33324   0.33966
 Alpha virt. eigenvalues --    0.35701   0.35870   0.36247   0.36545   0.36735
 Alpha virt. eigenvalues --    0.37014   0.37563   0.37745   0.38051   0.38566
 Alpha virt. eigenvalues --    0.38957   0.39039   0.40150   0.40238   0.40361
 Alpha virt. eigenvalues --    0.41107   0.41299   0.41745   0.42220   0.42502
 Alpha virt. eigenvalues --    0.42990   0.43422   0.44054   0.44758   0.44794
 Alpha virt. eigenvalues --    0.44873   0.45248   0.45729   0.46061   0.46216
 Alpha virt. eigenvalues --    0.46240   0.46679   0.46709   0.47293   0.48198
 Alpha virt. eigenvalues --    0.48365   0.49283   0.49452   0.49511   0.50429
 Alpha virt. eigenvalues --    0.50620   0.50936   0.51016   0.51620   0.52314
 Alpha virt. eigenvalues --    0.52478   0.52923   0.52963   0.54351   0.54721
 Alpha virt. eigenvalues --    0.54998   0.55345   0.55859   0.56169   0.57281
 Alpha virt. eigenvalues --    0.57330   0.58090   0.58639   0.58865   0.59492
 Alpha virt. eigenvalues --    0.59950   0.60234   0.61387   0.61686   0.62659
 Alpha virt. eigenvalues --    0.62930   0.63032   0.63181   0.63849   0.64706
 Alpha virt. eigenvalues --    0.64747   0.65865   0.66747   0.68688   0.68778
 Alpha virt. eigenvalues --    0.69032   0.70008   0.71542   0.72436   0.72571
 Alpha virt. eigenvalues --    0.73497   0.74122   0.74489   0.75278   0.75610
 Alpha virt. eigenvalues --    0.77577   0.78090   0.78368   0.79129   0.79212
 Alpha virt. eigenvalues --    0.79308   0.80075   0.80242   0.81355   0.82414
 Alpha virt. eigenvalues --    0.82891   0.83254   0.84053   0.84237   0.84754
 Alpha virt. eigenvalues --    0.85200   0.85779   0.86762   0.87255   0.87540
 Alpha virt. eigenvalues --    0.87798   0.87970   0.88935   0.90333   0.90652
 Alpha virt. eigenvalues --    0.91230   0.91387   0.92154   0.92634   0.92908
 Alpha virt. eigenvalues --    0.93777   0.94497   0.94882   0.95506   0.95666
 Alpha virt. eigenvalues --    0.96282   0.97213   0.97613   0.97823   0.98480
 Alpha virt. eigenvalues --    0.98942   0.99452   1.00005   1.00480   1.00747
 Alpha virt. eigenvalues --    1.01396   1.01812   1.02895   1.03135   1.03743
 Alpha virt. eigenvalues --    1.04756   1.05229   1.05810   1.06227   1.06598
 Alpha virt. eigenvalues --    1.07703   1.09351   1.10574   1.11721   1.11831
 Alpha virt. eigenvalues --    1.13417   1.13421   1.15209   1.15477   1.17466
 Alpha virt. eigenvalues --    1.19219   1.20196   1.21466   1.22023   1.24671
 Alpha virt. eigenvalues --    1.25654   1.25977   1.26741   1.29046   1.30573
 Alpha virt. eigenvalues --    1.31967   1.32237   1.34217   1.35688   1.37367
 Alpha virt. eigenvalues --    1.38089   1.38141   1.40082   1.40392   1.41081
 Alpha virt. eigenvalues --    1.42417   1.42465   1.43860   1.44585   1.45450
 Alpha virt. eigenvalues --    1.45935   1.45964   1.46757   1.47080   1.48379
 Alpha virt. eigenvalues --    1.48898   1.49843   1.49957   1.50624   1.50893
 Alpha virt. eigenvalues --    1.51901   1.52268   1.52599   1.53965   1.54382
 Alpha virt. eigenvalues --    1.55484   1.55567   1.56125   1.56348   1.58174
 Alpha virt. eigenvalues --    1.58785   1.60203   1.60517   1.60840   1.61147
 Alpha virt. eigenvalues --    1.61671   1.64138   1.64221   1.64816   1.64887
 Alpha virt. eigenvalues --    1.65781   1.67381   1.67421   1.67914   1.69339
 Alpha virt. eigenvalues --    1.70017   1.70436   1.71168   1.72115   1.72735
 Alpha virt. eigenvalues --    1.73347   1.75041   1.76015   1.76453   1.77024
 Alpha virt. eigenvalues --    1.77607   1.79057   1.79109   1.80153   1.80406
 Alpha virt. eigenvalues --    1.81704   1.82343   1.83746   1.84077   1.84260
 Alpha virt. eigenvalues --    1.85037   1.85545   1.86305   1.87449   1.88662
 Alpha virt. eigenvalues --    1.89435   1.90382   1.90830   1.92194   1.92888
 Alpha virt. eigenvalues --    1.93546   1.94261   1.94791   1.96301   1.98279
 Alpha virt. eigenvalues --    1.98297   2.00055   2.00476   2.02110   2.02680
 Alpha virt. eigenvalues --    2.03067   2.04077   2.05481   2.05945   2.06378
 Alpha virt. eigenvalues --    2.07409   2.07502   2.08400   2.08896   2.10736
 Alpha virt. eigenvalues --    2.11919   2.14090   2.14776   2.15764   2.16501
 Alpha virt. eigenvalues --    2.17595   2.19114   2.20767   2.20940   2.22400
 Alpha virt. eigenvalues --    2.22771   2.25146   2.25524   2.25752   2.26725
 Alpha virt. eigenvalues --    2.29157   2.29564   2.30798   2.31541   2.31620
 Alpha virt. eigenvalues --    2.32342   2.34272   2.35313   2.36159   2.39010
 Alpha virt. eigenvalues --    2.40938   2.41588   2.42037   2.46317   2.47720
 Alpha virt. eigenvalues --    2.48366   2.51382   2.51759   2.56804   2.57929
 Alpha virt. eigenvalues --    2.58375   2.58628   2.60837   2.61314   2.62617
 Alpha virt. eigenvalues --    2.64807   2.67170   2.68872   2.72134   2.75024
 Alpha virt. eigenvalues --    2.76389   2.78545   2.79793   2.81157   2.81816
 Alpha virt. eigenvalues --    2.83543   2.86287   2.88391   2.89726   2.91333
 Alpha virt. eigenvalues --    2.92915   2.93522   2.96996   3.01855   3.03229
 Alpha virt. eigenvalues --    3.08520   3.09259   3.10473   3.11531   3.13481
 Alpha virt. eigenvalues --    3.14869   3.18806   3.21371   3.22573   3.25692
 Alpha virt. eigenvalues --    3.25965   3.26800   3.29780   3.32307   3.33614
 Alpha virt. eigenvalues --    3.34471   3.35141   3.37451   3.39451   3.39748
 Alpha virt. eigenvalues --    3.40701   3.43252   3.44823   3.45022   3.45457
 Alpha virt. eigenvalues --    3.49314   3.49337   3.51678   3.52291   3.52429
 Alpha virt. eigenvalues --    3.55098   3.55187   3.58659   3.59044   3.59731
 Alpha virt. eigenvalues --    3.60789   3.62623   3.64746   3.66024   3.67163
 Alpha virt. eigenvalues --    3.68446   3.69006   3.69666   3.70751   3.72511
 Alpha virt. eigenvalues --    3.72844   3.72886   3.73669   3.75237   3.75588
 Alpha virt. eigenvalues --    3.79886   3.80077   3.82981   3.85364   3.88623
 Alpha virt. eigenvalues --    3.89756   3.90374   3.90492   3.93434   3.95120
 Alpha virt. eigenvalues --    3.95797   3.96765   3.96934   3.99166   3.99252
 Alpha virt. eigenvalues --    4.02395   4.02929   4.03344   4.04942   4.05087
 Alpha virt. eigenvalues --    4.06315   4.07433   4.08479   4.09913   4.11121
 Alpha virt. eigenvalues --    4.12302   4.13014   4.13859   4.14533   4.16181
 Alpha virt. eigenvalues --    4.17475   4.18124   4.19050   4.19580   4.20610
 Alpha virt. eigenvalues --    4.22196   4.23130   4.23811   4.24995   4.25995
 Alpha virt. eigenvalues --    4.26078   4.26439   4.27736   4.28233   4.28896
 Alpha virt. eigenvalues --    4.30289   4.31616   4.31764   4.32495   4.32942
 Alpha virt. eigenvalues --    4.33663   4.33940   4.36136   4.36215   4.36909
 Alpha virt. eigenvalues --    4.37799   4.38696   4.39928   4.39959   4.40659
 Alpha virt. eigenvalues --    4.43021   4.43699   4.46400   4.47384   4.48108
 Alpha virt. eigenvalues --    4.49862   4.50511   4.50999   4.52286   4.53360
 Alpha virt. eigenvalues --    4.53826   4.54199   4.56738   4.57084   4.58124
 Alpha virt. eigenvalues --    4.60486   4.61409   4.61531   4.62251   4.62950
 Alpha virt. eigenvalues --    4.63125   4.68319   4.68374   4.69250   4.70714
 Alpha virt. eigenvalues --    4.71820   4.71937   4.72265   4.74500   4.75244
 Alpha virt. eigenvalues --    4.76691   4.78874   4.79264   4.81733   4.82291
 Alpha virt. eigenvalues --    4.84812   4.85377   4.86184   4.86359   4.88339
 Alpha virt. eigenvalues --    4.90369   4.91382   4.91944   4.93010   4.94942
 Alpha virt. eigenvalues --    4.95903   4.98952   4.99834   5.01151   5.01871
 Alpha virt. eigenvalues --    5.06080   5.08764   5.10202   5.11158   5.12882
 Alpha virt. eigenvalues --    5.15293   5.15385   5.19837   5.20508   5.24781
 Alpha virt. eigenvalues --    5.25226   5.28809   5.29990   5.32453   5.36519
 Alpha virt. eigenvalues --    5.39810   5.40955   5.43550   5.49435   5.50048
 Alpha virt. eigenvalues --    5.50234   5.56726   5.56933   5.56985   5.61555
 Alpha virt. eigenvalues --    5.64459   5.69178   5.69712   5.72296   5.76614
 Alpha virt. eigenvalues --    5.80129   5.80280   5.85731   5.87182   5.88515
 Alpha virt. eigenvalues --    5.92814   5.97925   5.98497   6.01618   6.03407
 Alpha virt. eigenvalues --    6.07575   6.08386   6.14089   6.17899   6.20413
 Alpha virt. eigenvalues --    6.20850   6.23138   6.23549   6.27260   6.30540
 Alpha virt. eigenvalues --    6.34837   6.36734   6.37702   6.43426   6.49622
 Alpha virt. eigenvalues --    6.56227   6.58000   6.61355   6.68238   6.70722
 Alpha virt. eigenvalues --    6.71441   6.74369   6.76961   6.91291   6.93464
 Alpha virt. eigenvalues --    6.94431   6.95337   7.03602   7.04936   7.09433
 Alpha virt. eigenvalues --    7.11823   7.19561   7.22558   7.23517   7.29964
 Alpha virt. eigenvalues --    7.40107   7.44522   7.49500   7.50723   7.58004
 Alpha virt. eigenvalues --    7.64618   7.72279   7.73242   7.81928   7.83474
 Alpha virt. eigenvalues --    7.89802   7.93933   8.07885   8.21935   8.23873
 Alpha virt. eigenvalues --    8.37881   8.57682   8.97725   9.61247  11.16637
 Alpha virt. eigenvalues --   11.26468  12.28094  12.45544  12.59667  12.66631
 Alpha virt. eigenvalues --   12.73900  13.02764  19.73156  20.00650  20.27231
 Alpha virt. eigenvalues --   20.40503  20.47666  20.81482  21.01579  21.22187
 Alpha virt. eigenvalues --   21.34498  28.79101  65.30255  65.35762 103.00271
 Alpha virt. eigenvalues --  103.25536 103.55252 103.67016 103.75166 104.12846
 Alpha virt. eigenvalues --  104.31793 104.53862 104.69448 148.39809
          Condensed to atoms (all electrons):
               1          2          3          4          5          6
     1  C    5.781299   0.358668   0.007346   0.023869   0.571597  -0.053637
     2  B    0.358668   5.057879  -0.432632  -0.052553  -0.169606   0.635003
     3  B    0.007346  -0.432632   5.165047   0.096308   0.178413   0.039960
     4  B    0.023869  -0.052553   0.096308   5.017181  -0.008630   0.617174
     5  Be   0.571597  -0.169606   0.178413  -0.008630   3.258101  -0.016154
     6  Be  -0.053637   0.635003   0.039960   0.617174  -0.016154   3.232410
     7  B   -0.177921  -0.158733   0.110889  -0.238479   0.140660   0.063454
     8  B    0.000608  -0.000702   0.049245  -0.329181  -0.018077  -0.051865
     9  B    0.035006  -0.056234  -0.125529   0.235427   0.000690  -0.123727
    10  B   -0.028462   0.019741  -0.184816   0.035021  -0.093571  -0.005133
    11  B   -0.232295  -0.005583  -0.552375  -0.136782  -0.123867  -0.088056
    12  B    0.084218  -0.011790  -0.170693   0.021034   0.576880   0.000523
               7          8          9         10         11         12
     1  C   -0.177921   0.000608   0.035006  -0.028462  -0.232295   0.084218
     2  B   -0.158733  -0.000702  -0.056234   0.019741  -0.005583  -0.011790
     3  B    0.110889   0.049245  -0.125529  -0.184816  -0.552375  -0.170693
     4  B   -0.238479  -0.329181   0.235427   0.035021  -0.136782   0.021034
     5  Be   0.140660  -0.018077   0.000690  -0.093571  -0.123867   0.576880
     6  Be   0.063454  -0.051865  -0.123727  -0.005133  -0.088056   0.000523
     7  B    6.555890  -0.101995  -0.388960  -0.004358  -0.405628  -0.168444
     8  B   -0.101995   5.546608   0.219434   0.154721  -0.165543  -0.366217
     9  B   -0.388960   0.219434   5.756516  -0.366487   0.082656   0.036012
    10  B   -0.004358   0.154721  -0.366487   5.782499  -0.231688   0.337730
    11  B   -0.405628  -0.165543   0.082656  -0.231688   6.669891  -0.328565
    12  B   -0.168444  -0.366217   0.036012   0.337730  -0.328565   5.062048
 Mulliken charges:
               1
     1  C   -0.370296
     2  B   -0.183459
     3  B    0.818836
     4  B   -0.280387
     5  Be  -0.296435
     6  Be  -0.249951
     7  B   -0.226374
     8  B    0.062964
     9  B   -0.304805
    10  B   -0.415196
    11  B    0.517837
    12  B   -0.072733
 Sum of Mulliken charges =  -1.00000
 Mulliken charges with hydrogens summed into heavy atoms:
               1
     1  C   -0.370296
     2  B   -0.183459
     3  B    0.818836
     4  B   -0.280387
     5  Be  -0.296435
     6  Be  -0.249951
     7  B   -0.226374
     8  B    0.062964
     9  B   -0.304805
    10  B   -0.415196
    11  B    0.517837
    12  B   -0.072733
 Electronic spatial extent (au):  <R**2>=           1182.7804
 Charge=             -1.0000 electrons
 Dipole moment (field-independent basis, Debye):
    X=             -0.1874    Y=              1.2974    Z=             -0.0000  Tot=              1.3108
 Quadrupole moment (field-independent basis, Debye-Ang):
   XX=           -106.6097   YY=            -98.3362   ZZ=            -71.9138
   XY=             -1.4807   XZ=             -0.0000   YZ=              0.0000
 Traceless Quadrupole moment (field-independent basis, Debye-Ang):
   XX=            -14.3231   YY=             -6.0496   ZZ=             20.3727
   XY=             -1.4807   XZ=             -0.0000   YZ=              0.0000
 Octapole moment (field-independent basis, Debye-Ang**2):
  XXX=             -8.0651  YYY=             -8.3013  ZZZ=             -0.0000  XYY=             -4.3093
  XXY=             27.2566  XXZ=             -0.0000  XZZ=             -1.4885  YZZ=              3.4059
  YYZ=              0.0000  XYZ=             -0.0000
 Hexadecapole moment (field-independent basis, Debye-Ang**3):
 XXXX=          -1591.5488 YYYY=          -1383.2119 ZZZZ=           -122.1717 XXXY=            -19.8070
 XXXZ=             -0.0000 YYYX=            -23.1216 YYYZ=             -0.0000 ZZZX=             -0.0000
 ZZZY=              0.0000 XXYY=           -476.5480 XXZZ=           -232.9399 YYZZ=           -216.3965
 XXYZ=              0.0000 YYXZ=             -0.0000 ZZXY=             -3.6836
 N-N= 3.314079413895D+02 E-N=-1.342121665862D+03  KE= 2.892507430374D+02
 1\1\GINC-N002\SP\RPBE0DH-FC\Gen\C1B9Be2(1-)\JORGE\02-Apr-2020\0\\# PBE
 0/Gen 5D NoSymm SCF=(Tight,MaxCyc=500,NoVarAcc,XQC) Int=(Grid=UltraFin
 e,Acc2e=12)\\Single point of B9Be2C^-1 in vacuo\\-1,1\C,0,-0.704454,2.
 310537,0.\B,0,0.718664,2.468135,0.\B,0,0.,0.965394,0.\B,0,2.518942,-0.
 628113,0.\Be,0,-1.930845,1.140251,0.\Be,0,2.006708,1.132999,0.\B,0,0.8
 77567,-0.468308,0.\B,0,-0.000539,-2.013751,0.\B,0,1.634238,-1.903721,0
 .\B,0,-1.627225,-1.905212,0.\B,0,-0.844259,-0.494973,0.\B,0,-2.492733,
 -0.610697,0.\\Version=ES64L-G16RevB.01\HF=-290.6869441\MP2=-290.882040
 9\RMSD=7.774e-09\PG=CS [SG(C1B9Be2)]\\@


 CHARLIE BROWN -- WHICH DO YOU THINK LASTS LONGER IN LIFE, THE GOOD THINGS 
                  OR THE BAD THINGS?
 LINUS --         GOOD THINGS LAST EIGHT SECONDS ..
                  BAD THINGS LAST THREE WEEKS
 CHARLIE BROWN -- WHAT ABOUT IN BETWEEN?
 SNOOPY --        IN BETWEEN YOU SHOULD TAKE A NAP ...
 Job cpu time:       0 days  7 hours 36 minutes 55.1 seconds.
 Elapsed time:       0 days  0 hours 28 minutes 37.0 seconds.
 File lengths (MBytes):  RWF=    255 Int=      0 D2E=      0 Chk=     33 Scr=      1
 Normal termination of Gaussian 16 at Thu Apr  2 01:38:05 2020.
