 Entering Gaussian System, Link 0=g16
 Initial command:
 /opt/g16/l1.exe "/scratch/593/Gau-53651.inp" -scrdir="/scratch/593/"
 Entering Link 1 = /opt/g16/l1.exe PID=     53653.
  
 Copyright (c) 1988-2017, Gaussian, Inc.  All Rights Reserved.
  
 This is part of the Gaussian(R) 16 program.  It is based on
 the Gaussian(R) 09 system (copyright 2009, Gaussian, Inc.),
 the Gaussian(R) 03 system (copyright 2003, Gaussian, Inc.),
 the Gaussian(R) 98 system (copyright 1998, Gaussian, Inc.),
 the Gaussian(R) 94 system (copyright 1995, Gaussian, Inc.),
 the Gaussian 92(TM) system (copyright 1992, Gaussian, Inc.),
 the Gaussian 90(TM) system (copyright 1990, Gaussian, Inc.),
 the Gaussian 88(TM) system (copyright 1988, Gaussian, Inc.),
 the Gaussian 86(TM) system (copyright 1986, Carnegie Mellon
 University), and the Gaussian 82(TM) system (copyright 1983,
 Carnegie Mellon University). Gaussian is a federally registered
 trademark of Gaussian, Inc.
  
 This software contains proprietary and confidential information,
 including trade secrets, belonging to Gaussian, Inc.
  
 This software is provided under written license and may be
 used, copied, transmitted, or stored only in accord with that
 written license.
  
 The following legend is applicable only to US Government
 contracts under FAR:
  
                    RESTRICTED RIGHTS LEGEND
  
 Use, reproduction and disclosure by the US Government is
 subject to restrictions as set forth in subparagraphs (a)
 and (c) of the Commercial Computer Software - Restricted
 Rights clause in FAR 52.227-19.
  
 Gaussian, Inc.
 340 Quinnipiac St., Bldg. 40, Wallingford CT 06492
  
  
 ---------------------------------------------------------------
 Warning -- This program may not be used in any manner that
 competes with the business of Gaussian, Inc. or will provide
 assistance to any competitor of Gaussian, Inc.  The licensee
 of this program is prohibited from giving any competitor of
 Gaussian, Inc. access to this program.  By using this program,
 the user acknowledges that Gaussian, Inc. is engaged in the
 business of creating and licensing software in the field of
 computational chemistry and represents and warrants to the
 licensee that it is not a competitor of Gaussian, Inc. and that
 it will not use this program in any manner prohibited above.
 ---------------------------------------------------------------
  

 Cite this work as:
 Gaussian 16, Revision B.01,
 M. J. Frisch, G. W. Trucks, H. B. Schlegel, G. E. Scuseria, 
 M. A. Robb, J. R. Cheeseman, G. Scalmani, V. Barone, 
 G. A. Petersson, H. Nakatsuji, X. Li, M. Caricato, A. V. Marenich, 
 J. Bloino, B. G. Janesko, R. Gomperts, B. Mennucci, H. P. Hratchian, 
 J. V. Ortiz, A. F. Izmaylov, J. L. Sonnenberg, D. Williams-Young, 
 F. Ding, F. Lipparini, F. Egidi, J. Goings, B. Peng, A. Petrone, 
 T. Henderson, D. Ranasinghe, V. G. Zakrzewski, J. Gao, N. Rega, 
 G. Zheng, W. Liang, M. Hada, M. Ehara, K. Toyota, R. Fukuda, 
 J. Hasegawa, M. Ishida, T. Nakajima, Y. Honda, O. Kitao, H. Nakai, 
 T. Vreven, K. Throssell, J. A. Montgomery, Jr., J. E. Peralta, 
 F. Ogliaro, M. J. Bearpark, J. J. Heyd, E. N. Brothers, K. N. Kudin, 
 V. N. Staroverov, T. A. Keith, R. Kobayashi, J. Normand, 
 K. Raghavachari, A. P. Rendell, J. C. Burant, S. S. Iyengar, 
 J. Tomasi, M. Cossi, J. M. Millam, M. Klene, C. Adamo, R. Cammi, 
 J. W. Ochterski, R. L. Martin, K. Morokuma, O. Farkas, 
 J. B. Foresman, and D. J. Fox, Gaussian, Inc., Wallingford CT, 2016.
 
 ******************************************
 Gaussian 16:  ES64L-G16RevB.01 20-Dec-2017
                26-Apr-2020 
 ******************************************
 %nprocshared=16
 Will use up to   16 processors via shared memory.
 %mem=24GB
 %chk=B9Be2C_N+1.chk
 ----------------------------------------------------------------------
 # UPBE0/Gen 5D NoSymm SCF=(Tight,MaxCyc=500,NoVarAcc,XQC) Int=(Grid=Ul
 traFine,Acc2e=12)
 ----------------------------------------------------------------------
 1/38=1,172=1/1;
 2/12=2,15=1,17=6,18=5,40=1/2;
 3/5=7,8=1,11=2,25=1,27=12,30=1,74=-78,75=-5,116=2/1,2,3;
 4//1;
 5/5=2,7=500,8=3,13=1,32=2,38=1,87=12/2,8;
 8/10=1,87=12/1;
 9/16=-3,87=12/6;
 6/7=2,8=2,9=2,10=2,87=12/1;
 99/5=1,9=1/99;
 ---------------------------------------------
 Single point of B9Be2C^-2 and 2S+1=2 in vacuo
 ---------------------------------------------
 Symbolic Z-matrix:
 Charge = -2 Multiplicity = 2
 6                    -0.70445   2.31054   0. 
 5                     0.71866   2.46814   0. 
 5                     0.        0.96539   0. 
 5                     2.51894  -0.62811   0. 
 4                    -1.93085   1.14025   0. 
 4                     2.00671   1.133     0. 
 5                     0.87757  -0.46831   0. 
 5                    -0.00054  -2.01375   0. 
 5                     1.63424  -1.90372   0. 
 5                    -1.62723  -1.90521   0. 
 5                    -0.84426  -0.49497   0. 
 5                    -2.49273  -0.6107    0. 
 
                          Input orientation:                          
 ---------------------------------------------------------------------
 Center     Atomic      Atomic             Coordinates (Angstroms)
 Number     Number       Type             X           Y           Z
 ---------------------------------------------------------------------
      1          6           0       -0.704454    2.310537    0.000000
      2          5           0        0.718664    2.468135    0.000000
      3          5           0        0.000000    0.965394    0.000000
      4          5           0        2.518942   -0.628113    0.000000
      5          4           0       -1.930845    1.140251    0.000000
      6          4           0        2.006708    1.132999    0.000000
      7          5           0        0.877567   -0.468308    0.000000
      8          5           0       -0.000539   -2.013751    0.000000
      9          5           0        1.634238   -1.903721    0.000000
     10          5           0       -1.627225   -1.905212    0.000000
     11          5           0       -0.844259   -0.494973    0.000000
     12          5           0       -2.492733   -0.610697    0.000000
 ---------------------------------------------------------------------
                    Distance matrix (angstroms):
                    1          2          3          4          5
     1  C    0.000000
     2  B    1.431818   0.000000
     3  B    1.518442   1.665746   0.000000
     4  B    4.361874   3.581585   2.980660   0.000000
     5  Be   1.695171   2.963642   1.938746   4.788289   0.000000
     6  Be   2.955841   1.855167   2.013695   1.834094   3.937560
     7  B    3.197619   2.940739   1.680960   1.649136   3.236455
     8  B    4.381206   4.539224   2.979145   2.875374   3.697811
     9  B    4.819694   4.466699   3.301902   1.552378   4.687812
    10  B    4.315559   4.962798   3.299733   4.338396   3.060560
    11  B    2.808991   3.350035   1.686845   3.365835   1.963320
    12  B    3.425135   4.448851   2.949200   5.011705   1.838896
                    6          7          8          9         10
     6  Be   0.000000
     7  B    1.959373   0.000000
     8  B    3.732436   1.777488   0.000000
     9  B    3.059477   1.622640   1.638476   0.000000
    10  B    4.736686   2.887677   1.630303   3.261463   0.000000
    11  B    3.283033   1.722032   1.737397   2.850880   1.613013
    12  B    4.825499   3.373306   2.859999   4.324789   1.557200
                   11         12
    11  B    0.000000
    12  B    1.652531   0.000000
 Symmetry turned off by external request.
 Stoichiometry    CB9Be2(2-,2)
 Framework group  CS[SG(CB9Be2)]
 Deg. of freedom    21
 Full point group                 CS      NOp   2
 Rotational constants (GHZ):           1.7150781           1.6695690           0.8460088
 General basis read from cards:  (5D, 7F)
   702 basis functions,  1106 primitive gaussians,   872 cartesian basis functions
    31 alpha electrons       30 beta electrons
       nuclear repulsion energy       331.4079413895 Hartrees.
 NAtoms=   12 NActive=   12 NUniq=   12 SFac= 1.00D+00 NAtFMM=   60 NAOKFM=F Big=F
 Integral buffers will be    131072 words long.
 Raffenetti 2 integral format.
 Two-electron integral symmetry is turned off.
 One-electron integrals computed using PRISM.
 NBasis=   702 RedAO= T EigKep=  1.10D-06  NBF=   702
 NBsUse=   694 1.00D-06 EigRej=  9.73D-07 NBFU=   694
 ExpMin= 2.99D-02 ExpMax= 6.70D+04 ExpMxC= 6.47D+02 IAcc=3 IRadAn=         5 AccDes= 0.00D+00
 Harris functional with IExCor= 1009 and IRadAn=       5 diagonalized for initial guess.
 HarFok:  IExCor= 1009 AccDes= 0.00D+00 IRadAn=         5 IDoV= 1 UseB2=F ITyADJ=14
 ICtDFT=  3500011 ScaDFX=  1.000000  1.000000  1.000000  1.000000
 FoFCou: FMM=F IPFlag=           0 FMFlag=      100000 FMFlg1=           0
         NFxFlg=           0 DoJE=T BraDBF=F KetDBF=T FulRan=T
         wScrn=  0.000000 ICntrl=       500 IOpCl=  0 I1Cent=   200000004 NGrid=           0
         NMat0=    1 NMatS0=      1 NMatT0=    0 NMatD0=    1 NMtDS0=    0 NMtDT0=    0
 Symmetry not used in FoFCou.
 Initial guess <Sx>= 0.0000 <Sy>= 0.0000 <Sz>= 0.5000 <S**2>= 0.7500 S= 0.5000
 Requested convergence on RMS density matrix=1.00D-08 within 128 cycles.
 Requested convergence on MAX density matrix=1.00D-06.
 Requested convergence on             energy=1.00D-06.
 No special actions if energy rises.
 Restarting incremental Fock formation.
 SCF Done:  E(UPBE0DH) =  -290.599555473     A.U. after   30 cycles
            NFock= 30  Conv=0.11D-08     -V/T= 2.0047
 <Sx>= 0.0000 <Sy>= 0.0000 <Sz>= 0.5000 <S**2>= 0.7705 S= 0.5102
 <L.S>=  0.00000000000    
 Annihilation of the first spin contaminant:
 S**2 before annihilation     0.7705,   after     0.7503
 QCSCF skips out because SCF is already converged.
 DoSCS=T DFT=T ScalE2(SS,OS)=  0.125000  0.125000
 ExpMin= 2.99D-02 ExpMax= 6.70D+04 ExpMxC= 6.47D+02 IAcc=3 IRadAn=         5 AccDes= 0.00D+00
 HarFok:  IExCor=  205 AccDes= 0.00D+00 IRadAn=         5 IDoV=-2 UseB2=F ITyADJ=14
 ICtDFT= 12500011 ScaDFX=  1.000000  1.000000  1.000000  1.000000
 Range of M.O.s used for correlation:    13   694
 NBasis=   702 NAE=    31 NBE=    30 NFC=    12 NFV=     0
 NROrb=    682 NOA=    19 NOB=    18 NVA=   663 NVB=   664

 **** Warning!!: The largest alpha MO coefficient is  0.15551558D+03


 **** Warning!!: The smallest alpha delta epsilon is  0.85798335D-01


 **** Warning!!: The largest beta MO coefficient is  0.15930747D+03

 DoSCS=T DFT=T ScalE2(SS,OS)=  0.125000  0.125000
 Disk-based method using OVN memory for 19 occupieds at a time.
 Estimated scratch disk usage= 15720379944 words.
 Actual    scratch disk usage= 14294950689 words.
 JobTyp=2 Pass  1:  I=   1 to  19 NPSUse= 16 ParTrn=T ParDer=T DoDerP=F.
 Actual    scratch disk usage= 14316511784 words.
 JobTyp=3 Pass  1:  I=   1 to  18 NPSUse= 16 ParTrn=T ParDer=T DoDerP=F.
 Spin components of T(2) and E(2):
     alpha-alpha T2 =       0.1893960967D+00 E2=     -0.3011032439D-01
     alpha-beta  T2 =       0.7907796862D+00 E2=     -0.1461362146D+00
     beta-beta   T2 =       0.1607427078D+00 E2=     -0.2655634233D-01
 (S**2,0)=  0.77051D+00           (S**2,1)=  0.74484D+00
 Scaling Projection term by:   0.125000
 E(PUHF)=      -0.29060236594D+03        E(PMP2)=      -0.29080249139D+03
 E2(PBE0DH) =    -0.2028028814D+00 E(PBE0DH) =    -0.29080235835424D+03

 **********************************************************************

            Population analysis using the SCF Density.

 **********************************************************************

 Alpha  occ. eigenvalues --  -10.27589  -6.78073  -6.77578  -6.77572  -6.77139
 Alpha  occ. eigenvalues --   -6.76942  -6.76607  -6.76152  -6.75653  -6.75315
 Alpha  occ. eigenvalues --   -3.96447  -3.96107  -0.56476  -0.50967  -0.42611
 Alpha  occ. eigenvalues --   -0.34180  -0.29756  -0.26906  -0.17198  -0.13083
 Alpha  occ. eigenvalues --   -0.12448  -0.09273  -0.07366  -0.05526  -0.05406
 Alpha  occ. eigenvalues --   -0.05002  -0.01363   0.01117   0.01174   0.02790
 Alpha  occ. eigenvalues --    0.10824
 Alpha virt. eigenvalues --    0.19404   0.19958   0.20200   0.21265   0.21833
 Alpha virt. eigenvalues --    0.21843   0.22879   0.23017   0.23776   0.24222
 Alpha virt. eigenvalues --    0.25717   0.26152   0.26178   0.26722   0.27246
 Alpha virt. eigenvalues --    0.27326   0.28794   0.28936   0.31314   0.31494
 Alpha virt. eigenvalues --    0.31804   0.32068   0.32267   0.32563   0.32611
 Alpha virt. eigenvalues --    0.33078   0.33485   0.33682   0.34237   0.34274
 Alpha virt. eigenvalues --    0.34990   0.35504   0.35512   0.35746   0.35971
 Alpha virt. eigenvalues --    0.36404   0.36832   0.36852   0.37986   0.38536
 Alpha virt. eigenvalues --    0.38991   0.39467   0.39580   0.39771   0.39906
 Alpha virt. eigenvalues --    0.40371   0.41076   0.41171   0.41411   0.41434
 Alpha virt. eigenvalues --    0.41577   0.41851   0.42449   0.42808   0.43406
 Alpha virt. eigenvalues --    0.43511   0.43631   0.44729   0.44746   0.46630
 Alpha virt. eigenvalues --    0.46672   0.47021   0.47247   0.47508   0.47693
 Alpha virt. eigenvalues --    0.48503   0.49091   0.49402   0.49660   0.50742
 Alpha virt. eigenvalues --    0.50760   0.51169   0.51790   0.52320   0.52756
 Alpha virt. eigenvalues --    0.52898   0.53451   0.54253   0.54265   0.54445
 Alpha virt. eigenvalues --    0.55412   0.55800   0.55875   0.56132   0.56431
 Alpha virt. eigenvalues --    0.56968   0.57027   0.57651   0.57971   0.58035
 Alpha virt. eigenvalues --    0.58584   0.58710   0.58993   0.59824   0.60310
 Alpha virt. eigenvalues --    0.60511   0.61082   0.61844   0.61879   0.62360
 Alpha virt. eigenvalues --    0.62559   0.62762   0.63614   0.64167   0.64370
 Alpha virt. eigenvalues --    0.64885   0.65091   0.66188   0.66543   0.66661
 Alpha virt. eigenvalues --    0.67171   0.67878   0.68344   0.69239   0.69503
 Alpha virt. eigenvalues --    0.70344   0.70874   0.71206   0.71545   0.72183
 Alpha virt. eigenvalues --    0.72895   0.73792   0.74426   0.75678   0.75800
 Alpha virt. eigenvalues --    0.75843   0.76297   0.76384   0.77399   0.77840
 Alpha virt. eigenvalues --    0.79517   0.80002   0.81629   0.81912   0.82293
 Alpha virt. eigenvalues --    0.82893   0.84653   0.85632   0.85796   0.86852
 Alpha virt. eigenvalues --    0.87171   0.88204   0.88506   0.88720   0.91178
 Alpha virt. eigenvalues --    0.91505   0.91539   0.92510   0.92760   0.93168
 Alpha virt. eigenvalues --    0.93236   0.93800   0.94413   0.95675   0.96577
 Alpha virt. eigenvalues --    0.96719   0.97376   0.97998   0.98121   0.98790
 Alpha virt. eigenvalues --    0.99731   1.00617   1.00907   1.01105   1.01198
 Alpha virt. eigenvalues --    1.01769   1.02341   1.03951   1.04304   1.04891
 Alpha virt. eigenvalues --    1.05080   1.05558   1.05992   1.06682   1.07540
 Alpha virt. eigenvalues --    1.07987   1.08043   1.08774   1.09456   1.09494
 Alpha virt. eigenvalues --    1.10141   1.11055   1.11496   1.11552   1.12001
 Alpha virt. eigenvalues --    1.13120   1.13396   1.14080   1.14294   1.14783
 Alpha virt. eigenvalues --    1.15389   1.16580   1.17020   1.17115   1.17984
 Alpha virt. eigenvalues --    1.19233   1.19704   1.20054   1.20274   1.21514
 Alpha virt. eigenvalues --    1.22642   1.24419   1.25334   1.26200   1.27426
 Alpha virt. eigenvalues --    1.27685   1.28979   1.29704   1.31104   1.33138
 Alpha virt. eigenvalues --    1.34072   1.35357   1.36662   1.38668   1.39761
 Alpha virt. eigenvalues --    1.40443   1.40665   1.42828   1.45157   1.45937
 Alpha virt. eigenvalues --    1.46732   1.48346   1.50468   1.52074   1.52203
 Alpha virt. eigenvalues --    1.52938   1.54441   1.54859   1.55423   1.56951
 Alpha virt. eigenvalues --    1.56995   1.58582   1.59241   1.60198   1.60243
 Alpha virt. eigenvalues --    1.60773   1.60932   1.61584   1.62838   1.63169
 Alpha virt. eigenvalues --    1.64280   1.64602   1.64938   1.65729   1.66448
 Alpha virt. eigenvalues --    1.67106   1.67212   1.68483   1.69001   1.70111
 Alpha virt. eigenvalues --    1.70478   1.70515   1.70985   1.72901   1.73220
 Alpha virt. eigenvalues --    1.74665   1.75081   1.75394   1.75752   1.76234
 Alpha virt. eigenvalues --    1.78603   1.79156   1.79623   1.79649   1.80227
 Alpha virt. eigenvalues --    1.81930   1.82216   1.82550   1.83973   1.84615
 Alpha virt. eigenvalues --    1.84934   1.85919   1.86796   1.87256   1.87804
 Alpha virt. eigenvalues --    1.89878   1.90493   1.90922   1.91514   1.92575
 Alpha virt. eigenvalues --    1.93547   1.93799   1.94741   1.95071   1.96104
 Alpha virt. eigenvalues --    1.97305   1.98468   1.98486   1.98681   1.99844
 Alpha virt. eigenvalues --    2.00380   2.00911   2.02245   2.03591   2.03827
 Alpha virt. eigenvalues --    2.04849   2.05719   2.07093   2.07847   2.08183
 Alpha virt. eigenvalues --    2.09296   2.09407   2.10685   2.12926   2.13025
 Alpha virt. eigenvalues --    2.14630   2.15415   2.16873   2.17721   2.17860
 Alpha virt. eigenvalues --    2.18838   2.20460   2.20762   2.21227   2.22195
 Alpha virt. eigenvalues --    2.22636   2.23364   2.23531   2.25674   2.26787
 Alpha virt. eigenvalues --    2.29369   2.29741   2.30449   2.31480   2.32717
 Alpha virt. eigenvalues --    2.33885   2.35910   2.36019   2.37324   2.37895
 Alpha virt. eigenvalues --    2.40271   2.40459   2.41112   2.41683   2.43982
 Alpha virt. eigenvalues --    2.44617   2.45711   2.46516   2.46815   2.47604
 Alpha virt. eigenvalues --    2.49329   2.50322   2.51468   2.53991   2.55987
 Alpha virt. eigenvalues --    2.56837   2.57133   2.61461   2.62984   2.63613
 Alpha virt. eigenvalues --    2.66239   2.67110   2.71861   2.73300   2.73644
 Alpha virt. eigenvalues --    2.73833   2.75824   2.76637   2.77929   2.80086
 Alpha virt. eigenvalues --    2.82550   2.83792   2.87322   2.90410   2.91642
 Alpha virt. eigenvalues --    2.94129   2.95143   2.96603   2.97197   2.98640
 Alpha virt. eigenvalues --    3.01589   3.03889   3.04903   3.06711   3.08419
 Alpha virt. eigenvalues --    3.08787   3.12300   3.17259   3.18529   3.24230
 Alpha virt. eigenvalues --    3.24608   3.25913   3.26849   3.29015   3.30469
 Alpha virt. eigenvalues --    3.34128   3.36768   3.38450   3.41070   3.41709
 Alpha virt. eigenvalues --    3.42439   3.45220   3.47906   3.49337   3.49964
 Alpha virt. eigenvalues --    3.50610   3.53522   3.55269   3.55301   3.56219
 Alpha virt. eigenvalues --    3.58662   3.60532   3.60695   3.61405   3.64802
 Alpha virt. eigenvalues --    3.65000   3.67498   3.67985   3.68080   3.70648
 Alpha virt. eigenvalues --    3.70912   3.74318   3.74890   3.75105   3.76517
 Alpha virt. eigenvalues --    3.78128   3.80395   3.80987   3.82676   3.83976
 Alpha virt. eigenvalues --    3.84575   3.84959   3.86157   3.88191   3.88231
 Alpha virt. eigenvalues --    3.88619   3.89263   3.91142   3.91258   3.95260
 Alpha virt. eigenvalues --    3.95411   3.98376   4.00900   4.04142   4.05283
 Alpha virt. eigenvalues --    4.05886   4.05936   4.09012   4.10768   4.11189
 Alpha virt. eigenvalues --    4.12051   4.12482   4.14841   4.14871   4.17817
 Alpha virt. eigenvalues --    4.18406   4.18882   4.20541   4.20595   4.21863
 Alpha virt. eigenvalues --    4.23003   4.23959   4.25633   4.26600   4.27803
 Alpha virt. eigenvalues --    4.28676   4.29410   4.30170   4.31433   4.32796
 Alpha virt. eigenvalues --    4.33507   4.34593   4.35276   4.36218   4.37620
 Alpha virt. eigenvalues --    4.38389   4.39223   4.40512   4.41552   4.41593
 Alpha virt. eigenvalues --    4.42189   4.43029   4.43998   4.44393   4.45749
 Alpha virt. eigenvalues --    4.47054   4.47142   4.48188   4.48661   4.49190
 Alpha virt. eigenvalues --    4.49288   4.51637   4.51793   4.52482   4.53392
 Alpha virt. eigenvalues --    4.54257   4.55360   4.55565   4.56340   4.58664
 Alpha virt. eigenvalues --    4.59179   4.61805   4.63070   4.63703   4.65403
 Alpha virt. eigenvalues --    4.66319   4.66531   4.67625   4.68947   4.69271
 Alpha virt. eigenvalues --    4.70039   4.72115   4.72793   4.73798   4.75990
 Alpha virt. eigenvalues --    4.76889   4.77321   4.77750   4.78618   4.78952
 Alpha virt. eigenvalues --    4.83936   4.84225   4.85094   4.86390   4.87270
 Alpha virt. eigenvalues --    4.87801   4.87889   4.89830   4.91152   4.92048
 Alpha virt. eigenvalues --    4.94287   4.94807   4.97152   4.97948   5.00432
 Alpha virt. eigenvalues --    5.00880   5.01728   5.02026   5.03948   5.05831
 Alpha virt. eigenvalues --    5.06885   5.07485   5.08522   5.10602   5.11665
 Alpha virt. eigenvalues --    5.14671   5.15650   5.16966   5.17677   5.21821
 Alpha virt. eigenvalues --    5.24457   5.25901   5.26699   5.28674   5.30807
 Alpha virt. eigenvalues --    5.31032   5.35453   5.36139   5.40412   5.41383
 Alpha virt. eigenvalues --    5.44570   5.45668   5.48019   5.52160   5.55310
 Alpha virt. eigenvalues --    5.56395   5.59391   5.65547   5.65677   5.65696
 Alpha virt. eigenvalues --    5.72338   5.72594   5.72861   5.77543   5.80443
 Alpha virt. eigenvalues --    5.84557   5.85933   5.87874   5.92640   5.95805
 Alpha virt. eigenvalues --    5.95998   6.01602   6.02965   6.04782   6.09063
 Alpha virt. eigenvalues --    6.13822   6.14335   6.17615   6.19108   6.23461
 Alpha virt. eigenvalues --    6.24323   6.30069   6.33073   6.36419   6.36449
 Alpha virt. eigenvalues --    6.38636   6.39086   6.43095   6.46272   6.50549
 Alpha virt. eigenvalues --    6.52613   6.53783   6.59254   6.65599   6.72077
 Alpha virt. eigenvalues --    6.73915   6.77485   6.83920   6.86899   6.87597
 Alpha virt. eigenvalues --    6.90568   6.92930   7.07189   7.09467   7.10186
 Alpha virt. eigenvalues --    7.11395   7.19545   7.20831   7.25438   7.27378
 Alpha virt. eigenvalues --    7.35570   7.38678   7.39483   7.45864   7.56268
 Alpha virt. eigenvalues --    7.60398   7.65536   7.66567   7.73441   7.80384
 Alpha virt. eigenvalues --    7.88130   7.89236   7.97561   7.99362   8.06013
 Alpha virt. eigenvalues --    8.09685   8.24069   8.37847   8.39697   8.53824
 Alpha virt. eigenvalues --    8.73507   9.13678   9.77475  11.32252  11.41741
 Alpha virt. eigenvalues --   12.43720  12.60951  12.75063  12.81904  12.89362
 Alpha virt. eigenvalues --   13.18013  19.88916  20.15855  20.43002  20.56437
 Alpha virt. eigenvalues --   20.63443  20.96825  21.18056  21.37860  21.50595
 Alpha virt. eigenvalues --   28.95652  65.45835  65.51021 103.16034 103.40733
 Alpha virt. eigenvalues --  103.71004 103.83081 103.90867 104.28161 104.48296
 Alpha virt. eigenvalues --  104.69471 104.85504 148.56534
  Beta  occ. eigenvalues --  -10.27179  -6.78002  -6.77610  -6.77535  -6.76878
  Beta  occ. eigenvalues --   -6.76766  -6.76630  -6.76249  -6.75651  -6.75185
  Beta  occ. eigenvalues --   -3.96474  -3.96049  -0.55643  -0.50230  -0.42500
  Beta  occ. eigenvalues --   -0.32974  -0.29304  -0.26586  -0.16795  -0.12345
  Beta  occ. eigenvalues --   -0.10073  -0.08944  -0.07084  -0.04983  -0.04853
  Beta  occ. eigenvalues --   -0.02613  -0.01287   0.01253   0.01497   0.02940
  Beta virt. eigenvalues --    0.19446   0.20023   0.20256   0.21329   0.21890
  Beta virt. eigenvalues --    0.22443   0.23072   0.23366   0.23481   0.23915
  Beta virt. eigenvalues --    0.24313   0.25795   0.26256   0.26502   0.26783
  Beta virt. eigenvalues --    0.27306   0.27610   0.28829   0.29433   0.31533
  Beta virt. eigenvalues --    0.31619   0.32153   0.32395   0.32691   0.32802
  Beta virt. eigenvalues --    0.33195   0.33250   0.33579   0.33763   0.34414
  Beta virt. eigenvalues --    0.34573   0.35101   0.35688   0.35832   0.35836
  Beta virt. eigenvalues --    0.36078   0.36593   0.37042   0.37140   0.38094
  Beta virt. eigenvalues --    0.39066   0.39162   0.39502   0.39881   0.39926
  Beta virt. eigenvalues --    0.40526   0.40546   0.41162   0.41474   0.41528
  Beta virt. eigenvalues --    0.41981   0.42153   0.42606   0.42972   0.43055
  Beta virt. eigenvalues --    0.43681   0.43713   0.44026   0.44926   0.44946
  Beta virt. eigenvalues --    0.46845   0.46855   0.47137   0.47397   0.47608
  Beta virt. eigenvalues --    0.48276   0.48648   0.49250   0.49660   0.49764
  Beta virt. eigenvalues --    0.50881   0.51157   0.51318   0.52032   0.52898
  Beta virt. eigenvalues --    0.53145   0.53257   0.53609   0.54468   0.54547
  Beta virt. eigenvalues --    0.54875   0.55514   0.56000   0.56077   0.56260
  Beta virt. eigenvalues --    0.56768   0.57162   0.57393   0.58032   0.58336
  Beta virt. eigenvalues --    0.58417   0.58952   0.59165   0.59390   0.59945
  Beta virt. eigenvalues --    0.60649   0.60682   0.61275   0.61975   0.62270
  Beta virt. eigenvalues --    0.62693   0.62820   0.62855   0.63910   0.64301
  Beta virt. eigenvalues --    0.64557   0.65231   0.65359   0.66416   0.66821
  Beta virt. eigenvalues --    0.66832   0.67349   0.67985   0.68631   0.69367
  Beta virt. eigenvalues --    0.69651   0.70608   0.70976   0.71653   0.71709
  Beta virt. eigenvalues --    0.72356   0.73143   0.73903   0.74661   0.75855
  Beta virt. eigenvalues --    0.76009   0.76032   0.76533   0.77278   0.77653
  Beta virt. eigenvalues --    0.78208   0.79786   0.80176   0.81937   0.82214
  Beta virt. eigenvalues --    0.82592   0.83147   0.84780   0.85846   0.86097
  Beta virt. eigenvalues --    0.87324   0.87372   0.88635   0.88658   0.88905
  Beta virt. eigenvalues --    0.91534   0.91810   0.92057   0.92779   0.93318
  Beta virt. eigenvalues --    0.93479   0.93843   0.94306   0.94574   0.95882
  Beta virt. eigenvalues --    0.96988   0.97114   0.97750   0.98326   0.98723
  Beta virt. eigenvalues --    0.98990   0.99967   1.00899   1.01306   1.01432
  Beta virt. eigenvalues --    1.01631   1.02042   1.02711   1.04081   1.04601
  Beta virt. eigenvalues --    1.05051   1.05482   1.05762   1.06244   1.06921
  Beta virt. eigenvalues --    1.07971   1.08110   1.08339   1.09048   1.09752
  Beta virt. eigenvalues --    1.09846   1.10296   1.11209   1.11564   1.12182
  Beta virt. eigenvalues --    1.12255   1.13484   1.13579   1.14441   1.14482
  Beta virt. eigenvalues --    1.14984   1.15569   1.16755   1.17433   1.17576
  Beta virt. eigenvalues --    1.18111   1.19759   1.19866   1.20217   1.20845
  Beta virt. eigenvalues --    1.21708   1.22821   1.24597   1.25513   1.26619
  Beta virt. eigenvalues --    1.27750   1.28130   1.29195   1.30595   1.31269
  Beta virt. eigenvalues --    1.33336   1.34264   1.35583   1.37044   1.38845
  Beta virt. eigenvalues --    1.40094   1.40852   1.40906   1.43045   1.45692
  Beta virt. eigenvalues --    1.46347   1.47061   1.48504   1.50824   1.52428
  Beta virt. eigenvalues --    1.52551   1.53322   1.54891   1.55162   1.55748
  Beta virt. eigenvalues --    1.57181   1.57510   1.58930   1.59603   1.60426
  Beta virt. eigenvalues --    1.60624   1.61166   1.61332   1.61911   1.63111
  Beta virt. eigenvalues --    1.63400   1.64571   1.64863   1.65111   1.66315
  Beta virt. eigenvalues --    1.66885   1.67539   1.67581   1.68656   1.69221
  Beta virt. eigenvalues --    1.70348   1.70715   1.70865   1.71314   1.73234
  Beta virt. eigenvalues --    1.73472   1.74771   1.75448   1.75823   1.75906
  Beta virt. eigenvalues --    1.76453   1.78836   1.79744   1.79977   1.80242
  Beta virt. eigenvalues --    1.80360   1.82146   1.82750   1.82836   1.84248
  Beta virt. eigenvalues --    1.84959   1.85144   1.86249   1.87057   1.87413
  Beta virt. eigenvalues --    1.88032   1.90270   1.90692   1.91152   1.91978
  Beta virt. eigenvalues --    1.92948   1.93716   1.94196   1.94919   1.95344
  Beta virt. eigenvalues --    1.96284   1.97816   1.98562   1.98863   1.98894
  Beta virt. eigenvalues --    2.00293   2.01131   2.01241   2.02710   2.04014
  Beta virt. eigenvalues --    2.04075   2.04991   2.06168   2.07282   2.08192
  Beta virt. eigenvalues --    2.08388   2.09595   2.09756   2.10849   2.13096
  Beta virt. eigenvalues --    2.13399   2.14798   2.15706   2.17226   2.18131
  Beta virt. eigenvalues --    2.18426   2.19005   2.20899   2.20921   2.21632
  Beta virt. eigenvalues --    2.22483   2.23082   2.23673   2.23932   2.26062
  Beta virt. eigenvalues --    2.27134   2.29948   2.30104   2.30628   2.31975
  Beta virt. eigenvalues --    2.32918   2.34144   2.36345   2.36352   2.37653
  Beta virt. eigenvalues --    2.38240   2.40470   2.40847   2.41626   2.42034
  Beta virt. eigenvalues --    2.44157   2.44747   2.45868   2.46821   2.47172
  Beta virt. eigenvalues --    2.48057   2.49617   2.50601   2.52031   2.54301
  Beta virt. eigenvalues --    2.56540   2.57140   2.57598   2.61536   2.63140
  Beta virt. eigenvalues --    2.63906   2.66559   2.67698   2.72028   2.73929
  Beta virt. eigenvalues --    2.74152   2.74270   2.75925   2.77267   2.78120
  Beta virt. eigenvalues --    2.80274   2.83149   2.83929   2.87518   2.90943
  Beta virt. eigenvalues --    2.91916   2.94770   2.95424   2.97135   2.97364
  Beta virt. eigenvalues --    2.98808   3.01678   3.04167   3.05137   3.07370
  Beta virt. eigenvalues --    3.08856   3.08953   3.12810   3.17445   3.18794
  Beta virt. eigenvalues --    3.24796   3.24855   3.26111   3.27146   3.29230
  Beta virt. eigenvalues --    3.30734   3.34427   3.36852   3.39111   3.41369
  Beta virt. eigenvalues --    3.42120   3.42916   3.45470   3.48179   3.49720
  Beta virt. eigenvalues --    3.50123   3.50844   3.54095   3.55581   3.55804
  Beta virt. eigenvalues --    3.56456   3.58853   3.60717   3.61098   3.61816
  Beta virt. eigenvalues --    3.64994   3.65355   3.67918   3.68327   3.68367
  Beta virt. eigenvalues --    3.71005   3.71331   3.74734   3.75238   3.75399
  Beta virt. eigenvalues --    3.76576   3.78432   3.81028   3.81054   3.82894
  Beta virt. eigenvalues --    3.84230   3.84809   3.85143   3.86301   3.88399
  Beta virt. eigenvalues --    3.88458   3.89188   3.89441   3.91470   3.91709
  Beta virt. eigenvalues --    3.95308   3.95786   3.98545   4.01249   4.04354
  Beta virt. eigenvalues --    4.05423   4.06060   4.06134   4.09252   4.11030
  Beta virt. eigenvalues --    4.11378   4.12318   4.12749   4.15044   4.15235
  Beta virt. eigenvalues --    4.18067   4.18608   4.19095   4.20689   4.21104
  Beta virt. eigenvalues --    4.22003   4.23407   4.24229   4.25891   4.26852
  Beta virt. eigenvalues --    4.27946   4.28893   4.29680   4.30422   4.31599
  Beta virt. eigenvalues --    4.32952   4.33815   4.34882   4.35592   4.36554
  Beta virt. eigenvalues --    4.37863   4.38603   4.39338   4.40742   4.41790
  Beta virt. eigenvalues --    4.41906   4.42588   4.43247   4.44362   4.44644
  Beta virt. eigenvalues --    4.46089   4.47302   4.47307   4.48741   4.48965
  Beta virt. eigenvalues --    4.49537   4.49562   4.51848   4.52185   4.52710
  Beta virt. eigenvalues --    4.53874   4.54547   4.55530   4.55853   4.56575
  Beta virt. eigenvalues --    4.59007   4.59432   4.61977   4.63497   4.64193
  Beta virt. eigenvalues --    4.65771   4.66782   4.66938   4.67876   4.69151
  Beta virt. eigenvalues --    4.69518   4.70496   4.72348   4.73273   4.74103
  Beta virt. eigenvalues --    4.76191   4.77051   4.77636   4.77963   4.79037
  Beta virt. eigenvalues --    4.79265   4.84147   4.84718   4.85588   4.86582
  Beta virt. eigenvalues --    4.87359   4.88233   4.88264   4.89925   4.91635
  Beta virt. eigenvalues --    4.92180   4.94392   4.95029   4.97289   4.98088
  Beta virt. eigenvalues --    5.00642   5.01038   5.01928   5.02503   5.04049
  Beta virt. eigenvalues --    5.05958   5.07102   5.07713   5.08711   5.10818
  Beta virt. eigenvalues --    5.12030   5.14865   5.15891   5.17397   5.17945
  Beta virt. eigenvalues --    5.22002   5.24571   5.26107   5.26963   5.28946
  Beta virt. eigenvalues --    5.30972   5.31573   5.35702   5.36270   5.40632
  Beta virt. eigenvalues --    5.41903   5.44849   5.45873   5.48128   5.52268
  Beta virt. eigenvalues --    5.55409   5.56488   5.59714   5.65600   5.65799
  Beta virt. eigenvalues --    5.66187   5.72516   5.72720   5.73094   5.77891
  Beta virt. eigenvalues --    5.80848   5.84685   5.86677   5.88004   5.93304
  Beta virt. eigenvalues --    5.95914   5.96157   6.01974   6.03122   6.05475
  Beta virt. eigenvalues --    6.09825   6.13951   6.14613   6.18511   6.19372
  Beta virt. eigenvalues --    6.23552   6.24923   6.30410   6.33142   6.36693
  Beta virt. eigenvalues --    6.36772   6.38717   6.39249   6.43619   6.46332
  Beta virt. eigenvalues --    6.50796   6.53103   6.54256   6.59472   6.65919
  Beta virt. eigenvalues --    6.72415   6.74058   6.78197   6.84009   6.87061
  Beta virt. eigenvalues --    6.88549   6.91430   6.93033   7.07278   7.10308
  Beta virt. eigenvalues --    7.10405   7.12553   7.19922   7.20907   7.26016
  Beta virt. eigenvalues --    7.27436   7.35859   7.39518   7.39597   7.45952
  Beta virt. eigenvalues --    7.56419   7.60527   7.65641   7.66702   7.73585
  Beta virt. eigenvalues --    7.80473   7.88244   7.90113   7.97696   7.99605
  Beta virt. eigenvalues --    8.06209   8.10445   8.24909   8.37942   8.39812
  Beta virt. eigenvalues --    8.53923   8.73589   9.13870   9.77849  11.32355
  Beta virt. eigenvalues --   11.41743  12.43770  12.60967  12.75106  12.81897
  Beta virt. eigenvalues --   12.89380  13.18015  19.89034  20.15860  20.43031
  Beta virt. eigenvalues --   20.56582  20.63510  20.96856  21.18317  21.37947
  Beta virt. eigenvalues --   21.50711  28.96154  65.45861  65.51006 103.16058
  Beta virt. eigenvalues --  103.40727 103.71005 103.83122 103.90878 104.28161
  Beta virt. eigenvalues --  104.48359 104.69490 104.85530 148.56665
          Condensed to atoms (all electrons):
               1          2          3          4          5          6
     1  C    7.280090  -1.117569   0.616194   0.015611   0.053416  -0.247895
     2  B   -1.117569   7.389590  -1.095435  -0.172361   0.436293   0.850121
     3  B    0.616194  -1.095435  10.287748   0.289927  -0.146436   0.137541
     4  B    0.015611  -0.172361   0.289927   6.625484  -0.070418   0.622673
     5  Be   0.053416   0.436293  -0.146436  -0.070418   3.591945   0.058606
     6  Be  -0.247895   0.850121   0.137541   0.622673   0.058606   3.362936
     7  B   -0.396836   0.007472  -1.314504  -1.174190   0.322666   0.072368
     8  B    0.041689  -0.055959  -0.218445  -0.239773  -0.046903  -0.003538
     9  B    0.111745  -0.213470  -0.862243   0.029314  -0.112259  -0.173886
    10  B   -0.088705   0.038260  -1.163085  -0.113719   0.005131  -0.018831
    11  B    0.010238  -0.392576  -2.484883  -0.180643  -0.285761  -0.216640
    12  B    0.063881  -0.091911   0.049463   0.109834   0.536230  -0.040482
               7          8          9         10         11         12
     1  C   -0.396836   0.041689   0.111745  -0.088705   0.010238   0.063881
     2  B    0.007472  -0.055959  -0.213470   0.038260  -0.392576  -0.091911
     3  B   -1.314504  -0.218445  -0.862243  -1.163085  -2.484883   0.049463
     4  B   -1.174190  -0.239773   0.029314  -0.113719  -0.180643   0.109834
     5  Be   0.322666  -0.046903  -0.112259   0.005131  -0.285761   0.536230
     6  Be   0.072368  -0.003538  -0.173886  -0.018831  -0.216640  -0.040482
     7  B    9.689411  -0.210197  -0.824969   0.188560  -1.333504  -0.374723
     8  B   -0.210197   5.931147   0.171923  -0.089872  -0.175738  -0.186764
     9  B   -0.824969   0.171923   8.153867  -0.660603   0.249552  -0.108458
    10  B    0.188560  -0.089872  -0.660603   7.762302   0.049461  -0.085414
    11  B   -1.333504  -0.175738   0.249552   0.049461   9.926693  -1.296863
    12  B   -0.374723  -0.186764  -0.108458  -0.085414  -1.296863   6.895370
          Atomic-Atomic Spin Densities.
               1          2          3          4          5          6
     1  C    0.250844   0.039613  -0.157524  -0.006858  -0.005150  -0.008594
     2  B    0.039613  -0.034240   0.217898   0.015929   0.015201   0.071572
     3  B   -0.157524   0.217898   3.431299   0.040581  -0.009864   0.189731
     4  B   -0.006858   0.015929   0.040581  -0.122121   0.002611   0.054318
     5  Be  -0.005150   0.015201  -0.009864   0.002611   0.006839  -0.005171
     6  Be  -0.008594   0.071572   0.189731   0.054318  -0.005171   0.107209
     7  B    0.055732  -0.103330  -0.451722  -0.097967   0.007251  -0.111850
     8  B   -0.001892  -0.013952  -0.327653   0.019834  -0.002247  -0.006233
     9  B    0.002309  -0.050197  -0.798417  -0.008074   0.001657  -0.093045
    10  B    0.014382  -0.028041  -0.558198  -0.012487  -0.021115  -0.015629
    11  B    0.061206  -0.101625  -1.187339   0.015196   0.004753  -0.075841
    12  B    0.010822  -0.000881   0.017326   0.008188  -0.010829   0.001204
               7          8          9         10         11         12
     1  C    0.055732  -0.001892   0.002309   0.014382   0.061206   0.010822
     2  B   -0.103330  -0.013952  -0.050197  -0.028041  -0.101625  -0.000881
     3  B   -0.451722  -0.327653  -0.798417  -0.558198  -1.187339   0.017326
     4  B   -0.097967   0.019834  -0.008074  -0.012487   0.015196   0.008188
     5  Be   0.007251  -0.002247   0.001657  -0.021115   0.004753  -0.010829
     6  Be  -0.111850  -0.006233  -0.093045  -0.015629  -0.075841   0.001204
     7  B    0.149871  -0.011765  -0.095475   0.023478   0.314740   0.022643
     8  B   -0.011765   0.355284   0.226512   0.154645   0.074938   0.024596
     9  B   -0.095475   0.226512   0.696059   0.153196   0.243327  -0.002199
    10  B    0.023478   0.154645   0.153196   0.277783   0.070070   0.003710
    11  B    0.314740   0.074938   0.243327   0.070070   0.428454  -0.038300
    12  B    0.022643   0.024596  -0.002199   0.003710  -0.038300  -0.066696
 Mulliken charges and spin densities:
               1          2
     1  C   -0.341859   0.254891
     2  B   -0.582454   0.027946
     3  B    0.904158   0.406118
     4  B   -0.741740  -0.090850
     5  Be  -0.342512  -0.016064
     6  Be  -0.402974   0.107672
     7  B    0.348444  -0.298393
     8  B    0.082431   0.492067
     9  B   -0.760512   0.275654
    10  B   -0.823485   0.061795
    11  B    1.130665  -0.190421
    12  B   -0.470163  -0.030415
 Sum of Mulliken charges =  -2.00000   1.00000
 Mulliken charges and spin densities with hydrogens summed into heavy atoms:
               1          2
     1  C   -0.341859   0.254891
     2  B   -0.582454   0.027946
     3  B    0.904158   0.406118
     4  B   -0.741740  -0.090850
     5  Be  -0.342512  -0.016064
     6  Be  -0.402974   0.107672
     7  B    0.348444  -0.298393
     8  B    0.082431   0.492067
     9  B   -0.760512   0.275654
    10  B   -0.823485   0.061795
    11  B    1.130665  -0.190421
    12  B   -0.470163  -0.030415
 Electronic spatial extent (au):  <R**2>=           1230.4837
 Charge=             -2.0000 electrons
 Dipole moment (field-independent basis, Debye):
    X=             -0.7019    Y=              1.9421    Z=             -0.0000  Tot=              2.0650
 Quadrupole moment (field-independent basis, Debye-Ang):
   XX=           -132.6229   YY=           -126.6809   ZZ=            -81.7184
   XY=             -1.4331   XZ=              0.0000   YZ=              0.0000
 Traceless Quadrupole moment (field-independent basis, Debye-Ang):
   XX=            -18.9489   YY=            -13.0068   ZZ=             31.9557
   XY=             -1.4331   XZ=              0.0000   YZ=              0.0000
 Octapole moment (field-independent basis, Debye-Ang**2):
  XXX=            -12.2304  YYY=             -7.3254  ZZZ=             -0.0000  XYY=             -8.2082
  XXY=             31.6599  XXZ=             -0.0000  XZZ=             -3.1898  YZZ=              6.7346
  YYZ=              0.0000  XYZ=             -0.0000
 Hexadecapole moment (field-independent basis, Debye-Ang**3):
 XXXX=          -1961.6686 YYYY=          -1707.9161 ZZZZ=           -166.9354 XXXY=            -25.5390
 XXXZ=             -0.0000 YYYX=            -30.5333 YYYZ=              0.0000 ZZZX=              0.0000
 ZZZY=              0.0000 XXYY=           -585.6597 XXZZ=           -281.1534 YYZZ=           -269.9038
 XXYZ=              0.0000 YYXZ=              0.0000 ZZXY=             -3.6447
 N-N= 3.314079413895D+02 E-N=-1.351401435596D+03  KE= 2.892293012738D+02
 1\1\GINC-N002\SP\UPBE0DH-FC\Gen\C1B9Be2(2-,2)\JORGE\26-Apr-2020\0\\# U
 PBE0/Gen 5D NoSymm SCF=(Tight,MaxCyc=500,NoVarAcc,XQC) Int=(Grid=Ultra
 Fine,Acc2e=12)\\Single point of B9Be2C^-2 and 2S+1=2 in vacuo\\-2,2\C,
 0,-0.704454,2.310537,0.\B,0,0.718664,2.468135,0.\B,0,0.,0.965394,0.\B,
 0,2.518942,-0.628113,0.\Be,0,-1.930845,1.140251,0.\Be,0,2.006708,1.132
 999,0.\B,0,0.877567,-0.468308,0.\B,0,-0.000539,-2.013751,0.\B,0,1.6342
 38,-1.903721,0.\B,0,-1.627225,-1.905212,0.\B,0,-0.844259,-0.494973,0.\
 B,0,-2.492733,-0.610697,0.\\Version=ES64L-G16RevB.01\HF=-290.5995555\M
 P2=-290.8023584\PUHF=-290.6023659\PMP2-0=-290.8024914\S2=0.770513\S2-1
 =0.744837\S2A=0.750251\RMSD=1.107e-09\PG=CS [SG(C1B9Be2)]\\@


 A FOOL CAN ASK MORE QUESTIONS THAN
 A WISE MAN CAN ANSWER.
 Job cpu time:       1 days  5 hours 49 minutes 35.0 seconds.
 Elapsed time:       0 days  1 hours 54 minutes 36.9 seconds.
 File lengths (MBytes):  RWF= 109451 Int=      0 D2E=      0 Chk=     42 Scr=      1
 Normal termination of Gaussian 16 at Sun Apr 26 08:32:38 2020.
