 Entering Gaussian System, Link 0=/opt/g09E01ES64L/g09/g09
 Initial command:
 /opt/g09E01ES64L/g09/l1.exe "/home/scratch/Gau-9795.inp" -scrdir="/home/scratch/"
 Entering Link 1 = /opt/g09E01ES64L/g09/l1.exe PID=      9796.
  
 Copyright (c) 1988,1990,1992,1993,1995,1998,2003,2009,2015,
            Gaussian, Inc.  All Rights Reserved.
  
 This is part of the Gaussian(R) 09 program.  It is based on
 the Gaussian(R) 03 system (copyright 2003, Gaussian, Inc.),
 the Gaussian(R) 98 system (copyright 1998, Gaussian, Inc.),
 the Gaussian(R) 94 system (copyright 1995, Gaussian, Inc.),
 the Gaussian 92(TM) system (copyright 1992, Gaussian, Inc.),
 the Gaussian 90(TM) system (copyright 1990, Gaussian, Inc.),
 the Gaussian 88(TM) system (copyright 1988, Gaussian, Inc.),
 the Gaussian 86(TM) system (copyright 1986, Carnegie Mellon
 University), and the Gaussian 82(TM) system (copyright 1983,
 Carnegie Mellon University). Gaussian is a federally registered
 trademark of Gaussian, Inc.
  
 This software contains proprietary and confidential information,
 including trade secrets, belonging to Gaussian, Inc.
  
 This software is provided under written license and may be
 used, copied, transmitted, or stored only in accord with that
 written license.
  
 The following legend is applicable only to US Government
 contracts under FAR:
  
                    RESTRICTED RIGHTS LEGEND
  
 Use, reproduction and disclosure by the US Government is
 subject to restrictions as set forth in subparagraphs (a)
 and (c) of the Commercial Computer Software - Restricted
 Rights clause in FAR 52.227-19.
  
 Gaussian, Inc.
 340 Quinnipiac St., Bldg. 40, Wallingford CT 06492
  
  
 ---------------------------------------------------------------
 Warning -- This program may not be used in any manner that
 competes with the business of Gaussian, Inc. or will provide
 assistance to any competitor of Gaussian, Inc.  The licensee
 of this program is prohibited from giving any competitor of
 Gaussian, Inc. access to this program.  By using this program,
 the user acknowledges that Gaussian, Inc. is engaged in the
 business of creating and licensing software in the field of
 computational chemistry and represents and warrants to the
 licensee that it is not a competitor of Gaussian, Inc. and that
 it will not use this program in any manner prohibited above.
 ---------------------------------------------------------------
  

 Cite this work as:
 Gaussian 09, Revision E.01,
 M. J. Frisch, G. W. Trucks, H. B. Schlegel, G. E. Scuseria, 
 M. A. Robb, J. R. Cheeseman, G. Scalmani, V. Barone, B. Mennucci, 
 G. A. Petersson, H. Nakatsuji, M. Caricato, X. Li, H. P. Hratchian, 
 A. F. Izmaylov, J. Bloino, G. Zheng, J. L. Sonnenberg, M. Hada, 
 M. Ehara, K. Toyota, R. Fukuda, J. Hasegawa, M. Ishida, T. Nakajima, 
 Y. Honda, O. Kitao, H. Nakai, T. Vreven, J. A. Montgomery, Jr., 
 J. E. Peralta, F. Ogliaro, M. Bearpark, J. J. Heyd, E. Brothers, 
 K. N. Kudin, V. N. Staroverov, T. Keith, R. Kobayashi, J. Normand, 
 K. Raghavachari, A. Rendell, J. C. Burant, S. S. Iyengar, J. Tomasi, 
 M. Cossi, N. Rega, J. M. Millam, M. Klene, J. E. Knox, J. B. Cross, 
 V. Bakken, C. Adamo, J. Jaramillo, R. Gomperts, R. E. Stratmann, 
 O. Yazyev, A. J. Austin, R. Cammi, C. Pomelli, J. W. Ochterski, 
 R. L. Martin, K. Morokuma, V. G. Zakrzewski, G. A. Voth, 
 P. Salvador, J. J. Dannenberg, S. Dapprich, A. D. Daniels, 
 O. Farkas, J. B. Foresman, J. V. Ortiz, J. Cioslowski, 
 and D. J. Fox, Gaussian, Inc., Wallingford CT, 2013.
 
 ******************************************
 Gaussian 09:  ES64L-G09RevE.01 30-Nov-2015
                 2-Aug-2020 
 ******************************************
 %nprocshared=16
 Will use up to   16 processors via shared memory.
 %mem=16GB
 %chk=O2_dft004_N+1.chk
 ----------------------------------------------------------------------
 # UTPSSTPSS/6-311+G(d) Geom=Check Guess=Read SCF=(VeryTight,MaxCyc=500
 ,NoVarAcc,XQC) Int=(Grid=UltraFine,Acc2e=12)
 ----------------------------------------------------------------------
 1/29=2,38=1/1;
 2/12=2,40=1/2;
 3/5=4,6=6,7=11,11=2,14=-4,16=1,25=1,30=1,74=2523,75=-5,116=2/1,2,3;
 4/5=1/1;
 5/5=2,7=500,8=3,13=1,17=3,38=6,87=12/2,8;
 6/7=2,8=2,9=2,10=2,28=1/1;
 99/5=1,9=1/99;
 -----------------------------------------------------------------
 Single point of O2^-1 at the UTPSSTPSS/6-311+G(d) level of theory
 -----------------------------------------------------------------
 Structure from the checkpoint file:  "O2_dft004_N+1.chk"
 Charge = -1 Multiplicity = 2
 Redundant internal coordinates found in file.
 O,0,1.7585680311,-0.37828947,0.
 O,0,2.9791951089,-0.37828947,0.
 Recover connectivity data from disk.
                          Input orientation:                          
 ---------------------------------------------------------------------
 Center     Atomic      Atomic             Coordinates (Angstroms)
 Number     Number       Type             X           Y           Z
 ---------------------------------------------------------------------
      1          8           0        1.758568   -0.378289    0.000000
      2          8           0        2.979195   -0.378289    0.000000
 ---------------------------------------------------------------------
 Stoichiometry    O2(1-,2)
 Framework group  D*H[C*(O.O)]
 Deg. of freedom     1
 Full point group                 D*H     NOp   8
 Largest Abelian subgroup         D2H     NOp   8
 Largest concise Abelian subgroup C2      NOp   2
                         Standard orientation:                         
 ---------------------------------------------------------------------
 Center     Atomic      Atomic             Coordinates (Angstroms)
 Number     Number       Type             X           Y           Z
 ---------------------------------------------------------------------
      1          8           0        0.000000    0.000000    0.610314
      2          8           0        0.000000    0.000000   -0.610314
 ---------------------------------------------------------------------
 Rotational constants (GHZ):      0.0000000     42.4130266     42.4130266
 Standard basis: 6-311+G(d) (5D, 7F)
 There are    12 symmetry adapted cartesian basis functions of AG  symmetry.
 There are     1 symmetry adapted cartesian basis functions of B1G symmetry.
 There are     5 symmetry adapted cartesian basis functions of B2G symmetry.
 There are     5 symmetry adapted cartesian basis functions of B3G symmetry.
 There are     1 symmetry adapted cartesian basis functions of AU  symmetry.
 There are    12 symmetry adapted cartesian basis functions of B1U symmetry.
 There are     5 symmetry adapted cartesian basis functions of B2U symmetry.
 There are     5 symmetry adapted cartesian basis functions of B3U symmetry.
 There are    11 symmetry adapted basis functions of AG  symmetry.
 There are     1 symmetry adapted basis functions of B1G symmetry.
 There are     5 symmetry adapted basis functions of B2G symmetry.
 There are     5 symmetry adapted basis functions of B3G symmetry.
 There are     1 symmetry adapted basis functions of AU  symmetry.
 There are    11 symmetry adapted basis functions of B1U symmetry.
 There are     5 symmetry adapted basis functions of B2U symmetry.
 There are     5 symmetry adapted basis functions of B3U symmetry.
    44 basis functions,    72 primitive gaussians,    46 cartesian basis functions
     9 alpha electrons        8 beta electrons
       nuclear repulsion energy        27.7458545390 Hartrees.
 NAtoms=    2 NActive=    2 NUniq=    1 SFac= 4.00D+00 NAtFMM=   60 NAOKFM=F Big=F
 Integral buffers will be    131072 words long.
 Raffenetti 2 integral format.
 Two-electron integral symmetry is turned on.
 One-electron integrals computed using PRISM.
 NBasis=    44 RedAO= T EigKep=  1.20D-03  NBF=    11     1     5     5     1    11     5     5
 NBsUse=    44 1.00D-06 EigRej= -1.00D+00 NBFU=    11     1     5     5     1    11     5     5
 Initial guess from the checkpoint file:  "O2_dft004_N+1.chk"
 B after Tr=     0.000000    0.000000    0.000000
         Rot=    1.000000    0.000000    0.000000    0.000000 Ang=   0.00 deg.
 Initial guess orbital symmetries:
 Alpha Orbitals:
       Occupied  (SGG) (SGU) (SGG) (SGU) (PIU) (PIU) (SGG) (PIG)
                 (PIG)
       Virtual   (SGU) (SGG) (PIU) (PIU) (SGG) (SGU) (PIG) (PIG)
                 (SGU) (PIU) (PIU) (SGG) (SGU) (PIG) (PIG) (SGG)
                 (SGU) (PIU) (PIU) (DLTG) (DLTG) (DLTU) (DLTU)
                 (SGG) (PIG) (PIG) (SGU) (PIU) (PIU) (SGG) (PIG)
                 (PIG) (SGU) (SGG) (SGU)
 Beta  Orbitals:
       Occupied  (SGG) (SGU) (SGG) (SGU) (SGG) (PIU) (PIU) (PIG)
       Virtual   (PIG) (SGG) (SGU) (PIU) (PIU) (SGG) (PIG) (PIG)
                 (SGU) (SGU) (SGG) (SGU) (PIU) (PIU) (PIG) (PIG)
                 (SGG) (SGU) (PIU) (PIU) (DLTG) (DLTG) (SGG) (DLTU)
                 (DLTU) (PIG) (PIG) (SGU) (PIU) (PIU) (SGG) (PIG)
                 (PIG) (SGU) (SGG) (SGU)
 Initial guess <Sx>= 0.0000 <Sy>= 0.0000 <Sz>= 0.5000 <S**2>= 0.7593 S= 0.5046
 Keep J ints in memory in symmetry-blocked form, NReq=1389031.
 Requested convergence on RMS density matrix=1.00D-08 within 128 cycles.
 Requested convergence on MAX density matrix=1.00D-06.
 Requested convergence on             energy=1.00D-06.
 No special actions if energy rises.
 SCF Done:  E(UTPSS-TPSS) =  -150.389583694     A.U. after    9 cycles
            NFock=  9  Conv=0.98D-08     -V/T= 2.0000
 <Sx>= 0.0000 <Sy>= 0.0000 <Sz>= 0.5000 <S**2>= 0.7531 S= 0.5015
 <L.S>= 0.000000000000E+00
 Annihilation of the first spin contaminant:
 S**2 before annihilation     0.7531,   after     0.7500
 QCSCF skips out because SCF is already converged.

 **********************************************************************

            Population analysis using the SCF density.

 **********************************************************************

 Orbital symmetries:
 Alpha Orbitals:
       Occupied  (SGG) (SGU) (SGG) (SGU) (PIU) (SGG) (PIU) (PIG)
                 (PIG)
       Virtual   (SGU) (SGG) (PIU) (PIU) (PIG) (PIG) (SGG) (SGU)
                 (SGU) (PIU) (SGG) (SGU) (PIU) (PIG) (PIG) (SGG)
                 (SGU) (PIU) (PIU) (?A) (?A) (?A) (DLTU) (DLTU)
                 (PIG) (PIG) (SGU) (PIU) (PIU) (SGG) (PIG) (PIG)
                 (SGU) (SGG) (SGU)
 Beta  Orbitals:
       Occupied  (SGG) (SGU) (SGG) (SGU) (SGG) (PIU) (PIU) (PIG)
       Virtual   (PIG) (SGU) (SGG) (PIU) (PIU) (PIG) (SGG) (PIG)
                 (SGU) (SGU) (SGG) (SGU) (PIU) (PIU) (PIG) (PIG)
                 (SGG) (SGU) (PIU) (PIU) (DLTG) (DLTG) (SGG) (DLTU)
                 (DLTU) (PIG) (PIG) (SGU) (PIU) (PIU) (SGG) (PIG)
                 (PIG) (SGU) (SGG) (SGU)
 Unable to determine electronic state:  partially filled degenerate orbitals.
 Alpha  occ. eigenvalues --  -18.62098 -18.62093  -0.82581  -0.38823  -0.13238
 Alpha  occ. eigenvalues --   -0.12477  -0.09309   0.10980   0.15073
 Alpha virt. eigenvalues --    0.28858   0.30318   0.33988   0.34785   0.40033
 Alpha virt. eigenvalues --    0.40694   0.41129   0.53783   0.55298   1.20806
 Alpha virt. eigenvalues --    1.22314   1.22677   1.23364   1.27119   1.29405
 Alpha virt. eigenvalues --    1.48800   1.76946   2.57165   2.60282   2.90321
 Alpha virt. eigenvalues --    2.90436   3.15582   3.15828   3.15835   3.73156
 Alpha virt. eigenvalues --    3.76612   4.16268   5.04096   5.07631   5.10220
 Alpha virt. eigenvalues --    5.27788   5.31423   6.45016  50.04699  50.15276
  Beta  occ. eigenvalues --  -18.60709 -18.60704  -0.80284  -0.35362  -0.10887
  Beta  occ. eigenvalues --   -0.08413  -0.06921   0.16142
  Beta virt. eigenvalues --    0.18484   0.29295   0.30823   0.34954   0.35057
  Beta virt. eigenvalues --    0.40928   0.41342   0.41609   0.54476   0.57229
  Beta virt. eigenvalues --    1.23241   1.23665   1.24006   1.24730   1.30179
  Beta virt. eigenvalues --    1.31612   1.50420   1.79237   2.60591   2.61219
  Beta virt. eigenvalues --    2.94570   2.94759   3.17981   3.20225   3.20444
  Beta virt. eigenvalues --    3.77816   3.77970   4.18492   5.09736   5.09797
  Beta virt. eigenvalues --    5.12065   5.33628   5.33742   6.47411  50.06621
  Beta virt. eigenvalues --   50.17185
          Condensed to atoms (all electrons):
               1          2
     1  O    8.949630  -0.449630
     2  O   -0.449630   8.949630
          Atomic-Atomic Spin Densities.
               1          2
     1  O    0.797533  -0.297533
     2  O   -0.297533   0.797533
 Mulliken charges and spin densities:
               1          2
     1  O   -0.500000   0.500000
     2  O   -0.500000   0.500000
 Sum of Mulliken charges =  -1.00000   1.00000
 Mulliken charges and spin densities with hydrogens summed into heavy atoms:
               1          2
     1  O   -0.500000   0.500000
     2  O   -0.500000   0.500000
 Electronic spatial extent (au):  <R**2>=             54.0068
 Charge=             -1.0000 electrons
 Dipole moment (field-independent basis, Debye):
    X=             -0.0000    Y=              0.0000    Z=             -0.0000  Tot=              0.0000
 Quadrupole moment (field-independent basis, Debye-Ang):
   XX=            -12.7040   YY=            -14.3840   ZZ=            -16.9273
   XY=              0.0000   XZ=              0.0000   YZ=              0.0000
 Traceless Quadrupole moment (field-independent basis, Debye-Ang):
   XX=              1.9678   YY=              0.2877   ZZ=             -2.2555
   XY=              0.0000   XZ=              0.0000   YZ=              0.0000
 Octapole moment (field-independent basis, Debye-Ang**2):
  XXX=             -0.0000  YYY=             -0.0000  ZZZ=             -0.0000  XYY=             -0.0000
  XXY=             -0.0000  XXZ=              0.0000  XZZ=             -0.0000  YZZ=             -0.0000
  YYZ=              0.0000  XYZ=              0.0000
 Hexadecapole moment (field-independent basis, Debye-Ang**3):
 XXXX=            -12.8763 YYYY=            -17.0750 ZZZZ=            -47.1203 XXXY=              0.0000
 XXXZ=              0.0000 YYYX=              0.0000 YYYZ=              0.0000 ZZZX=              0.0000
 ZZZY=              0.0000 XXYY=             -4.9919 XXZZ=            -10.5016 YYZZ=            -12.9714
 XXYZ=              0.0000 YYXZ=              0.0000 ZZXY=             -0.0000
 N-N= 2.774585453902D+01 E-N=-4.177523387474D+02  KE= 1.503891732919D+02
 Symmetry AG   KE= 6.910859905201D+01
 Symmetry B1G  KE= 1.221078067967D-34
 Symmetry B2G  KE= 2.752159096317D+00
 Symmetry B3G  KE= 5.209764081791D+00
 Symmetry AU   KE= 2.247904380583D-34
 Symmetry B1U  KE= 6.484408885170D+01
 Symmetry B2U  KE= 4.244556898351D+00
 Symmetry B3U  KE= 4.230005311739D+00
                          Isotropic Fermi Contact Couplings
        Atom                 a.u.       MegaHertz       Gauss      10(-4) cm-1
     1  O(17)              0.01843     -11.17363      -3.98703      -3.72712
     2  O(17)              0.01843     -11.17363      -3.98703      -3.72712
 --------------------------------------------------------
       Center         ----  Spin Dipole Couplings  ----
                      3XX-RR        3YY-RR        3ZZ-RR
 --------------------------------------------------------
     1   Atom        2.215004     -1.104803     -1.110201
     2   Atom        2.215004     -1.104803     -1.110201
 --------------------------------------------------------
                        XY            XZ            YZ
 --------------------------------------------------------
     1   Atom        0.000000     -0.000000      0.000000
     2   Atom        0.000000     -0.000000      0.000000
 --------------------------------------------------------


 ---------------------------------------------------------------------------------
              Anisotropic Spin Dipole Couplings in Principal Axis System
 ---------------------------------------------------------------------------------

       Atom             a.u.   MegaHertz   Gauss  10(-4) cm-1        Axes

              Baa    -1.1102    80.333    28.665    26.796  0.0000  0.0000  1.0000
     1 O(17)  Bbb    -1.1048    79.943    28.526    26.666  0.0000  1.0000 -0.0000
              Bcc     2.2150  -160.276   -57.190   -53.462  1.0000  0.0000  0.0000
 
              Baa    -1.1102    80.333    28.665    26.796  0.0000  0.0000  1.0000
     2 O(17)  Bbb    -1.1048    79.943    28.526    26.666  0.0000  1.0000 -0.0000
              Bcc     2.2150  -160.276   -57.190   -53.462  1.0000  0.0000  0.0000
 

 ---------------------------------------------------------------------------------

 1\1\GINC-LOCALHOST\SP\UTPSSTPSS\6-311+G(d)\O2(1-,2)\ROOT\02-Aug-2020\0
 \\# UTPSSTPSS/6-311+G(d) Geom=Check Guess=Read SCF=(VeryTight,MaxCyc=5
 00,NoVarAcc,XQC) Int=(Grid=UltraFine,Acc2e=12)\\Single point of O2^-1 
 at the UTPSSTPSS/6-311+G(d) level of theory\\-1,2\O,0,1.7585680311,-0.
 37828947,0.\O,0,2.9791951089,-0.37828947,0.\\Version=ES64L-G09RevE.01\
 HF=-150.3895837\S2=0.753087\S2-1=0.\S2A=0.750005\RMSD=9.816e-09\Dipole
 =0.,0.,0.\Quadrupole=-1.6769191,0.213923,1.462996,0.,0.,0.\PG=D*H [C*(
 O1.O1)]\\@


 THE MORE ACCURATE THE CALCULATIONS BECOME, THE MORE THE CONCEPTS
 TEND TO VANISH INTO THIN AIR.
     -- R.S. MULLIKEN, J.C.P. 43,S2(1965)
 Job cpu time:       0 days  0 hours  0 minutes 24.0 seconds.
 File lengths (MBytes):  RWF=      5 Int=      0 D2E=      0 Chk=      1 Scr=      1
 Normal termination of Gaussian 09 at Sun Aug  2 22:41:34 2020.
