 Entering Gaussian System, Link 0=/opt/g09E01ES64L/g09/g09
 Initial command:
 /opt/g09E01ES64L/g09/l1.exe "/home/scratch/Gau-10366.inp" -scrdir="/home/scratch/"
 Entering Link 1 = /opt/g09E01ES64L/g09/l1.exe PID=     10367.
  
 Copyright (c) 1988,1990,1992,1993,1995,1998,2003,2009,2015,
            Gaussian, Inc.  All Rights Reserved.
  
 This is part of the Gaussian(R) 09 program.  It is based on
 the Gaussian(R) 03 system (copyright 2003, Gaussian, Inc.),
 the Gaussian(R) 98 system (copyright 1998, Gaussian, Inc.),
 the Gaussian(R) 94 system (copyright 1995, Gaussian, Inc.),
 the Gaussian 92(TM) system (copyright 1992, Gaussian, Inc.),
 the Gaussian 90(TM) system (copyright 1990, Gaussian, Inc.),
 the Gaussian 88(TM) system (copyright 1988, Gaussian, Inc.),
 the Gaussian 86(TM) system (copyright 1986, Carnegie Mellon
 University), and the Gaussian 82(TM) system (copyright 1983,
 Carnegie Mellon University). Gaussian is a federally registered
 trademark of Gaussian, Inc.
  
 This software contains proprietary and confidential information,
 including trade secrets, belonging to Gaussian, Inc.
  
 This software is provided under written license and may be
 used, copied, transmitted, or stored only in accord with that
 written license.
  
 The following legend is applicable only to US Government
 contracts under FAR:
  
                    RESTRICTED RIGHTS LEGEND
  
 Use, reproduction and disclosure by the US Government is
 subject to restrictions as set forth in subparagraphs (a)
 and (c) of the Commercial Computer Software - Restricted
 Rights clause in FAR 52.227-19.
  
 Gaussian, Inc.
 340 Quinnipiac St., Bldg. 40, Wallingford CT 06492
  
  
 ---------------------------------------------------------------
 Warning -- This program may not be used in any manner that
 competes with the business of Gaussian, Inc. or will provide
 assistance to any competitor of Gaussian, Inc.  The licensee
 of this program is prohibited from giving any competitor of
 Gaussian, Inc. access to this program.  By using this program,
 the user acknowledges that Gaussian, Inc. is engaged in the
 business of creating and licensing software in the field of
 computational chemistry and represents and warrants to the
 licensee that it is not a competitor of Gaussian, Inc. and that
 it will not use this program in any manner prohibited above.
 ---------------------------------------------------------------
  

 Cite this work as:
 Gaussian 09, Revision E.01,
 M. J. Frisch, G. W. Trucks, H. B. Schlegel, G. E. Scuseria, 
 M. A. Robb, J. R. Cheeseman, G. Scalmani, V. Barone, B. Mennucci, 
 G. A. Petersson, H. Nakatsuji, M. Caricato, X. Li, H. P. Hratchian, 
 A. F. Izmaylov, J. Bloino, G. Zheng, J. L. Sonnenberg, M. Hada, 
 M. Ehara, K. Toyota, R. Fukuda, J. Hasegawa, M. Ishida, T. Nakajima, 
 Y. Honda, O. Kitao, H. Nakai, T. Vreven, J. A. Montgomery, Jr., 
 J. E. Peralta, F. Ogliaro, M. Bearpark, J. J. Heyd, E. Brothers, 
 K. N. Kudin, V. N. Staroverov, T. Keith, R. Kobayashi, J. Normand, 
 K. Raghavachari, A. Rendell, J. C. Burant, S. S. Iyengar, J. Tomasi, 
 M. Cossi, N. Rega, J. M. Millam, M. Klene, J. E. Knox, J. B. Cross, 
 V. Bakken, C. Adamo, J. Jaramillo, R. Gomperts, R. E. Stratmann, 
 O. Yazyev, A. J. Austin, R. Cammi, C. Pomelli, J. W. Ochterski, 
 R. L. Martin, K. Morokuma, V. G. Zakrzewski, G. A. Voth, 
 P. Salvador, J. J. Dannenberg, S. Dapprich, A. D. Daniels, 
 O. Farkas, J. B. Foresman, J. V. Ortiz, J. Cioslowski, 
 and D. J. Fox, Gaussian, Inc., Wallingford CT, 2013.
 
 ******************************************
 Gaussian 09:  ES64L-G09RevE.01 30-Nov-2015
                 2-Aug-2020 
 ******************************************
 %nprocshared=16
 Will use up to   16 processors via shared memory.
 %mem=16GB
 %chk=O2_dft001_N-1.chk
 ----------------------------------------------------------------------
 # UM06/6-311+G(d) Geom=Check Guess=Read SCF=(VeryTight,MaxCyc=500,NoVa
 rAcc,XQC) Int=(Grid=UltraFine,Acc2e=12)
 ----------------------------------------------------------------------
 1/29=2,38=1/1;
 2/12=2,40=1/2;
 3/5=4,6=6,7=11,11=2,14=-4,16=1,25=1,30=1,74=-54,75=-5,116=2/1,2,3;
 4/5=1/1;
 5/5=2,7=500,8=3,13=1,17=3,38=6,87=12/2,8;
 6/7=2,8=2,9=2,10=2,28=1/1;
 99/5=1,9=1/99;
 -----------------------------------------------------------
 Single point of O2^+ at the UM06/6-311+G(d) level of theory
 -----------------------------------------------------------
 Structure from the checkpoint file:  "O2_dft001_N-1.chk"
 Charge =  1 Multiplicity = 2
 Redundant internal coordinates found in file.
 O,0,1.7709577502,-0.37828947,0.
 O,0,2.9668053898,-0.37828947,0.
 Recover connectivity data from disk.
                          Input orientation:                          
 ---------------------------------------------------------------------
 Center     Atomic      Atomic             Coordinates (Angstroms)
 Number     Number       Type             X           Y           Z
 ---------------------------------------------------------------------
      1          8           0        1.770958   -0.378289    0.000000
      2          8           0        2.966805   -0.378289    0.000000
 ---------------------------------------------------------------------
 Stoichiometry    O2(1+,2)
 Framework group  D*H[C*(O.O)]
 Deg. of freedom     1
 Full point group                 D*H     NOp   8
 Largest Abelian subgroup         D2H     NOp   8
 Largest concise Abelian subgroup C2      NOp   2
                         Standard orientation:                         
 ---------------------------------------------------------------------
 Center     Atomic      Atomic             Coordinates (Angstroms)
 Number     Number       Type             X           Y           Z
 ---------------------------------------------------------------------
      1          8           0        0.000000    0.000000    0.597924
      2          8           0        0.000000    0.000000   -0.597924
 ---------------------------------------------------------------------
 Rotational constants (GHZ):      0.0000000     44.1889379     44.1889379
 Standard basis: 6-311+G(d) (5D, 7F)
 There are    12 symmetry adapted cartesian basis functions of AG  symmetry.
 There are     1 symmetry adapted cartesian basis functions of B1G symmetry.
 There are     5 symmetry adapted cartesian basis functions of B2G symmetry.
 There are     5 symmetry adapted cartesian basis functions of B3G symmetry.
 There are     1 symmetry adapted cartesian basis functions of AU  symmetry.
 There are    12 symmetry adapted cartesian basis functions of B1U symmetry.
 There are     5 symmetry adapted cartesian basis functions of B2U symmetry.
 There are     5 symmetry adapted cartesian basis functions of B3U symmetry.
 There are    11 symmetry adapted basis functions of AG  symmetry.
 There are     1 symmetry adapted basis functions of B1G symmetry.
 There are     5 symmetry adapted basis functions of B2G symmetry.
 There are     5 symmetry adapted basis functions of B3G symmetry.
 There are     1 symmetry adapted basis functions of AU  symmetry.
 There are    11 symmetry adapted basis functions of B1U symmetry.
 There are     5 symmetry adapted basis functions of B2U symmetry.
 There are     5 symmetry adapted basis functions of B3U symmetry.
    44 basis functions,    72 primitive gaussians,    46 cartesian basis functions
     8 alpha electrons        7 beta electrons
       nuclear repulsion energy        28.3207828716 Hartrees.
 NAtoms=    2 NActive=    2 NUniq=    1 SFac= 4.00D+00 NAtFMM=   60 NAOKFM=F Big=F
 Integral buffers will be    131072 words long.
 Raffenetti 2 integral format.
 Two-electron integral symmetry is turned on.
 One-electron integrals computed using PRISM.
 NBasis=    44 RedAO= T EigKep=  1.07D-03  NBF=    11     1     5     5     1    11     5     5
 NBsUse=    44 1.00D-06 EigRej= -1.00D+00 NBFU=    11     1     5     5     1    11     5     5
 Initial guess from the checkpoint file:  "O2_dft001_N-1.chk"
 B after Tr=    -0.000000    0.000000    0.000000
         Rot=    1.000000    0.000000    0.000000    0.000000 Ang=   0.00 deg.
 Initial guess orbital symmetries:
 Alpha Orbitals:
       Occupied  (SGG) (SGU) (SGG) (SGU) (PIU) (PIU) (SGG) (PIG)
       Virtual   (PIG) (SGU) (SGG) (PIU) (PIU) (PIG) (PIG) (SGG)
                 (SGU) (SGU) (PIU) (PIU) (SGG) (SGU) (PIG) (PIG)
                 (SGG) (SGU) (PIU) (PIU) (DLTG) (DLTG) (DLTU) (DLTU)
                 (SGG) (PIG) (PIG) (SGU) (PIU) (PIU) (SGG) (PIG)
                 (PIG) (SGU) (SGG) (SGU)
 Beta  Orbitals:
       Occupied  (SGG) (SGU) (SGG) (SGU) (SGG) (PIU) (PIU)
       Virtual   (PIG) (PIG) (SGU) (SGG) (PIU) (PIU) (SGG) (PIG)
                 (PIG) (SGU) (SGU) (PIU) (PIU) (SGG) (SGU) (PIG)
                 (PIG) (SGG) (SGU) (PIU) (PIU) (DLTG) (DLTG) (DLTU)
                 (DLTU) (SGG) (PIG) (PIG) (SGU) (PIU) (PIU) (SGG)
                 (PIG) (PIG) (SGU) (SGG) (SGU)
 Initial guess <Sx>= 0.0000 <Sy>= 0.0000 <Sz>= 0.5000 <S**2>= 0.7576 S= 0.5038
 Keep R1 and R2 ints in memory in symmetry-blocked form, NReq=1389031.
 Requested convergence on RMS density matrix=1.00D-08 within 128 cycles.
 Requested convergence on MAX density matrix=1.00D-06.
 Requested convergence on             energy=1.00D-06.
 No special actions if energy rises.
 SCF Done:  E(UM06) =  -149.810623876     A.U. after    8 cycles
            NFock=  8  Conv=0.41D-08     -V/T= 2.0036
 <Sx>= 0.0000 <Sy>= 0.0000 <Sz>= 0.5000 <S**2>= 0.7516 S= 0.5008
 <L.S>= 0.000000000000E+00
 Annihilation of the first spin contaminant:
 S**2 before annihilation     0.7516,   after     0.7500
 QCSCF skips out because SCF is already converged.

 **********************************************************************

            Population analysis using the SCF density.

 **********************************************************************

 Orbital symmetries:
 Alpha Orbitals:
       Occupied  (SGG) (SGU) (SGG) (SGU) (PIU) (SGG) (PIU) (PIG)
       Virtual   (PIG) (SGU) (SGG) (PIU) (PIU) (SGU) (SGG) (PIG)
                 (PIG) (SGU) (PIU) (PIU) (SGG) (SGU) (PIG) (PIG)
                 (SGG) (SGU) (PIU) (PIU) (DLTG) (DLTG) (DLTU) (DLTU)
                 (SGG) (PIG) (PIG) (SGU) (PIU) (PIU) (SGG) (PIG)
                 (PIG) (SGU) (SGG) (SGU)
 Beta  Orbitals:
       Occupied  (SGG) (SGU) (SGG) (SGU) (SGG) (PIU) (PIU)
       Virtual   (PIG) (PIG) (SGU) (SGG) (PIU) (PIU) (SGU) (SGG)
                 (PIG) (PIG) (SGU) (PIU) (PIU) (SGG) (SGU) (PIG)
                 (PIG) (SGG) (SGU) (PIU) (PIU) (?A) (?A) (DLTU)
                 (DLTU) (?A) (PIG) (PIG) (SGU) (PIU) (PIU) (SGG)
                 (PIG) (PIG) (SGU) (SGG) (SGU)
 Unable to determine electronic state:  partially filled degenerate orbitals.
 Alpha  occ. eigenvalues --  -19.90492 -19.90458  -1.81980  -1.29472  -1.03113
 Alpha  occ. eigenvalues --   -1.02707  -1.00625  -0.76193
 Alpha virt. eigenvalues --   -0.63246  -0.23768  -0.19726  -0.15054  -0.14997
 Alpha virt. eigenvalues --   -0.11888  -0.07544  -0.05984  -0.05636   0.08085
 Alpha virt. eigenvalues --    0.55199   0.55550   0.59299   0.61158   0.64986
 Alpha virt. eigenvalues --    0.65947   0.78472   1.09245   1.78122   1.78352
 Alpha virt. eigenvalues --    2.08782   2.11240   2.36884   2.39498   2.44879
 Alpha virt. eigenvalues --    3.00218   3.00789   3.41533   4.23538   4.28854
 Alpha virt. eigenvalues --    4.36984   4.48519   4.53780   5.69991  49.04787
 Alpha virt. eigenvalues --   49.18670
  Beta  occ. eigenvalues --  -19.89067 -19.89023  -1.78605  -1.25513  -0.99140
  Beta  occ. eigenvalues --   -0.98821  -0.95220
  Beta virt. eigenvalues --   -0.60897  -0.57181  -0.21614  -0.19338  -0.14903
  Beta virt. eigenvalues --   -0.13942  -0.10597  -0.07426  -0.05308  -0.04395
  Beta virt. eigenvalues --    0.08473   0.55690   0.57473   0.59608   0.61651
  Beta virt. eigenvalues --    0.66421   0.67874   0.80110   1.10785   1.79111
  Beta virt. eigenvalues --    1.82021   2.14311   2.14320   2.43090   2.43148
  Beta virt. eigenvalues --    2.47841   3.02146   3.05191   3.42641   4.31587
  Beta virt. eigenvalues --    4.36266   4.36306   4.56778   4.61596   5.71845
  Beta virt. eigenvalues --   49.06557  49.20480
          Condensed to atoms (all electrons):
               1          2
     1  O    6.992925   0.507075
     2  O    0.507075   6.992925
          Atomic-Atomic Spin Densities.
               1          2
     1  O    0.650971  -0.150971
     2  O   -0.150971   0.650971
 Mulliken charges and spin densities:
               1          2
     1  O    0.500000   0.500000
     2  O    0.500000   0.500000
 Sum of Mulliken charges =   1.00000   1.00000
 Mulliken charges and spin densities with hydrogens summed into heavy atoms:
               1          2
     1  O    0.500000   0.500000
     2  O    0.500000   0.500000
 Electronic spatial extent (au):  <R**2>=             37.2319
 Charge=              1.0000 electrons
 Dipole moment (field-independent basis, Debye):
    X=              0.0000    Y=             -0.0000    Z=             -0.0000  Tot=              0.0000
 Quadrupole moment (field-independent basis, Debye-Ang):
   XX=             -8.4100   YY=             -7.6274   ZZ=             -6.5655
   XY=              0.0000   XZ=             -0.0000   YZ=             -0.0000
 Traceless Quadrupole moment (field-independent basis, Debye-Ang):
   XX=             -0.8757   YY=             -0.0931   ZZ=              0.9688
   XY=              0.0000   XZ=             -0.0000   YZ=             -0.0000
 Octapole moment (field-independent basis, Debye-Ang**2):
  XXX=             -0.0000  YYY=             -0.0000  ZZZ=              0.0000  XYY=             -0.0000
  XXY=             -0.0000  XXZ=              0.0000  XZZ=             -0.0000  YZZ=             -0.0000
  YYZ=              0.0000  XYZ=             -0.0000
 Hexadecapole moment (field-independent basis, Debye-Ang**3):
 XXXX=             -5.0195 YYYY=             -4.3311 ZZZZ=            -21.1983 XXXY=             -0.0000
 XXXZ=              0.0000 YYYX=             -0.0000 YYYZ=             -0.0000 ZZZX=              0.0000
 ZZZY=             -0.0000 XXYY=             -1.5584 XXZZ=             -4.7297 YYZZ=             -4.1992
 XXYZ=             -0.0000 YYXZ=              0.0000 ZZXY=              0.0000
 N-N= 2.832078287164D+01 E-N=-4.041295188160D+02  KE= 1.492687078932D+02
 Symmetry AG   KE= 7.035661673443D+01
 Symmetry B1G  KE= 7.942597038484D-35
 Symmetry B2G  KE= 3.323076721701D+00
 Symmetry B3G  KE= 8.922049426417D-32
 Symmetry AU   KE= 2.535328585420D-34
 Symmetry B1U  KE= 6.556705547078D+01
 Symmetry B2U  KE= 5.000263325672D+00
 Symmetry B3U  KE= 5.021695640580D+00
                          Isotropic Fermi Contact Couplings
        Atom                 a.u.       MegaHertz       Gauss      10(-4) cm-1
     1  O(17)              0.00291      -1.76635      -0.63028      -0.58919
     2  O(17)              0.00291      -1.76635      -0.63028      -0.58919
 --------------------------------------------------------
       Center         ----  Spin Dipole Couplings  ----
                      3XX-RR        3YY-RR        3ZZ-RR
 --------------------------------------------------------
     1   Atom        2.692064     -1.370693     -1.321371
     2   Atom        2.692064     -1.370693     -1.321371
 --------------------------------------------------------
                        XY            XZ            YZ
 --------------------------------------------------------
     1   Atom        0.000000     -0.000000      0.000000
     2   Atom        0.000000     -0.000000      0.000000
 --------------------------------------------------------


 ---------------------------------------------------------------------------------
              Anisotropic Spin Dipole Couplings in Principal Axis System
 ---------------------------------------------------------------------------------

       Atom             a.u.   MegaHertz   Gauss  10(-4) cm-1        Axes

              Baa    -1.3707    99.182    35.391    33.084  0.0000  1.0000  0.0000
     1 O(17)  Bbb    -1.3214    95.613    34.117    31.893  0.0000  0.0000  1.0000
              Bcc     2.6921  -194.796   -69.508   -64.977  1.0000  0.0000  0.0000
 
              Baa    -1.3707    99.182    35.391    33.084  0.0000  1.0000  0.0000
     2 O(17)  Bbb    -1.3214    95.613    34.117    31.893  0.0000  0.0000  1.0000
              Bcc     2.6921  -194.796   -69.508   -64.977  1.0000  0.0000  0.0000
 

 ---------------------------------------------------------------------------------

 1\1\GINC-LOCALHOST\SP\UM06\6-311+G(d)\O2(1+,2)\ROOT\02-Aug-2020\0\\# U
 M06/6-311+G(d) Geom=Check Guess=Read SCF=(VeryTight,MaxCyc=500,NoVarAc
 c,XQC) Int=(Grid=UltraFine,Acc2e=12)\\Single point of O2^+ at the UM06
 /6-311+G(d) level of theory\\1,2\O,0,1.7709577502,-0.37828947,0.\O,0,2
 .9668053898,-0.37828947,0.\\Version=ES64L-G09RevE.01\HF=-149.8106239\S
 2=0.751584\S2-1=0.\S2A=0.750001\RMSD=4.119e-09\Dipole=0.,0.,0.\Quadrup
 ole=0.7202745,-0.0691849,-0.6510895,0.,0.,0.\PG=D*H [C*(O1.O1)]\\@


 FOR THE NATURE OF THE CHEMICAL BOND
 IS THE PROBLEM AT THE HEART OF ALL CHEMISTRY.

                     -- BRYCE CRAWFORD, JR., 1953
 Job cpu time:       0 days  0 hours  0 minutes 21.6 seconds.
 File lengths (MBytes):  RWF=      5 Int=      0 D2E=      0 Chk=      1 Scr=      1
 Normal termination of Gaussian 09 at Sun Aug  2 22:49:21 2020.
