 Entering Gaussian System, Link 0=/opt/g09E01ES64L/g09/g09
 Initial command:
 /opt/g09E01ES64L/g09/l1.exe "/home/scratch/Gau-10614.inp" -scrdir="/home/scratch/"
 Entering Link 1 = /opt/g09E01ES64L/g09/l1.exe PID=     10615.
  
 Copyright (c) 1988,1990,1992,1993,1995,1998,2003,2009,2015,
            Gaussian, Inc.  All Rights Reserved.
  
 This is part of the Gaussian(R) 09 program.  It is based on
 the Gaussian(R) 03 system (copyright 2003, Gaussian, Inc.),
 the Gaussian(R) 98 system (copyright 1998, Gaussian, Inc.),
 the Gaussian(R) 94 system (copyright 1995, Gaussian, Inc.),
 the Gaussian 92(TM) system (copyright 1992, Gaussian, Inc.),
 the Gaussian 90(TM) system (copyright 1990, Gaussian, Inc.),
 the Gaussian 88(TM) system (copyright 1988, Gaussian, Inc.),
 the Gaussian 86(TM) system (copyright 1986, Carnegie Mellon
 University), and the Gaussian 82(TM) system (copyright 1983,
 Carnegie Mellon University). Gaussian is a federally registered
 trademark of Gaussian, Inc.
  
 This software contains proprietary and confidential information,
 including trade secrets, belonging to Gaussian, Inc.
  
 This software is provided under written license and may be
 used, copied, transmitted, or stored only in accord with that
 written license.
  
 The following legend is applicable only to US Government
 contracts under FAR:
  
                    RESTRICTED RIGHTS LEGEND
  
 Use, reproduction and disclosure by the US Government is
 subject to restrictions as set forth in subparagraphs (a)
 and (c) of the Commercial Computer Software - Restricted
 Rights clause in FAR 52.227-19.
  
 Gaussian, Inc.
 340 Quinnipiac St., Bldg. 40, Wallingford CT 06492
  
  
 ---------------------------------------------------------------
 Warning -- This program may not be used in any manner that
 competes with the business of Gaussian, Inc. or will provide
 assistance to any competitor of Gaussian, Inc.  The licensee
 of this program is prohibited from giving any competitor of
 Gaussian, Inc. access to this program.  By using this program,
 the user acknowledges that Gaussian, Inc. is engaged in the
 business of creating and licensing software in the field of
 computational chemistry and represents and warrants to the
 licensee that it is not a competitor of Gaussian, Inc. and that
 it will not use this program in any manner prohibited above.
 ---------------------------------------------------------------
  

 Cite this work as:
 Gaussian 09, Revision E.01,
 M. J. Frisch, G. W. Trucks, H. B. Schlegel, G. E. Scuseria, 
 M. A. Robb, J. R. Cheeseman, G. Scalmani, V. Barone, B. Mennucci, 
 G. A. Petersson, H. Nakatsuji, M. Caricato, X. Li, H. P. Hratchian, 
 A. F. Izmaylov, J. Bloino, G. Zheng, J. L. Sonnenberg, M. Hada, 
 M. Ehara, K. Toyota, R. Fukuda, J. Hasegawa, M. Ishida, T. Nakajima, 
 Y. Honda, O. Kitao, H. Nakai, T. Vreven, J. A. Montgomery, Jr., 
 J. E. Peralta, F. Ogliaro, M. Bearpark, J. J. Heyd, E. Brothers, 
 K. N. Kudin, V. N. Staroverov, T. Keith, R. Kobayashi, J. Normand, 
 K. Raghavachari, A. Rendell, J. C. Burant, S. S. Iyengar, J. Tomasi, 
 M. Cossi, N. Rega, J. M. Millam, M. Klene, J. E. Knox, J. B. Cross, 
 V. Bakken, C. Adamo, J. Jaramillo, R. Gomperts, R. E. Stratmann, 
 O. Yazyev, A. J. Austin, R. Cammi, C. Pomelli, J. W. Ochterski, 
 R. L. Martin, K. Morokuma, V. G. Zakrzewski, G. A. Voth, 
 P. Salvador, J. J. Dannenberg, S. Dapprich, A. D. Daniels, 
 O. Farkas, J. B. Foresman, J. V. Ortiz, J. Cioslowski, 
 and D. J. Fox, Gaussian, Inc., Wallingford CT, 2013.
 
 ******************************************
 Gaussian 09:  ES64L-G09RevE.01 30-Nov-2015
                 2-Aug-2020 
 ******************************************
 %nprocshared=16
 Will use up to   16 processors via shared memory.
 %mem=16GB
 %chk=O2_dft002_N-1.chk
 ----------------------------------------------------------------------
 # UBLYP/6-311+G(d) Geom=Check Guess=Read SCF=(VeryTight,MaxCyc=500,NoV
 arAcc,XQC) Int=(Grid=UltraFine,Acc2e=12)
 ----------------------------------------------------------------------
 1/29=2,38=1/1;
 2/12=2,40=1/2;
 3/5=4,6=6,7=11,11=2,14=-4,16=1,25=1,30=1,74=402,75=-5,116=2/1,2,3;
 4/5=1/1;
 5/5=2,7=500,8=3,13=1,17=3,38=6,87=12/2,8;
 6/7=2,8=2,9=2,10=2,28=1/1;
 99/5=1,9=1/99;
 -------------------------------------------------------------
 Single point of O2^+1 at the UBLYP/6-311+G(d) level of theory
 -------------------------------------------------------------
 Structure from the checkpoint file:  "O2_dft002_N-1.chk"
 Charge =  1 Multiplicity = 2
 Redundant internal coordinates found in file.
 O,0,1.7529686167,-0.37828947,0.
 O,0,2.9847945233,-0.37828947,0.
 Recover connectivity data from disk.
                          Input orientation:                          
 ---------------------------------------------------------------------
 Center     Atomic      Atomic             Coordinates (Angstroms)
 Number     Number       Type             X           Y           Z
 ---------------------------------------------------------------------
      1          8           0        1.752969   -0.378289    0.000000
      2          8           0        2.984795   -0.378289    0.000000
 ---------------------------------------------------------------------
 Stoichiometry    O2(1+,2)
 Framework group  D*H[C*(O.O)]
 Deg. of freedom     1
 Full point group                 D*H     NOp   8
 Largest Abelian subgroup         D2H     NOp   8
 Largest concise Abelian subgroup C2      NOp   2
                         Standard orientation:                         
 ---------------------------------------------------------------------
 Center     Atomic      Atomic             Coordinates (Angstroms)
 Number     Number       Type             X           Y           Z
 ---------------------------------------------------------------------
      1          8           0        0.000000    0.000000    0.615913
      2          8           0        0.000000    0.000000   -0.615913
 ---------------------------------------------------------------------
 Rotational constants (GHZ):      0.0000000     41.6453578     41.6453578
 Standard basis: 6-311+G(d) (5D, 7F)
 There are    12 symmetry adapted cartesian basis functions of AG  symmetry.
 There are     1 symmetry adapted cartesian basis functions of B1G symmetry.
 There are     5 symmetry adapted cartesian basis functions of B2G symmetry.
 There are     5 symmetry adapted cartesian basis functions of B3G symmetry.
 There are     1 symmetry adapted cartesian basis functions of AU  symmetry.
 There are    12 symmetry adapted cartesian basis functions of B1U symmetry.
 There are     5 symmetry adapted cartesian basis functions of B2U symmetry.
 There are     5 symmetry adapted cartesian basis functions of B3U symmetry.
 There are    11 symmetry adapted basis functions of AG  symmetry.
 There are     1 symmetry adapted basis functions of B1G symmetry.
 There are     5 symmetry adapted basis functions of B2G symmetry.
 There are     5 symmetry adapted basis functions of B3G symmetry.
 There are     1 symmetry adapted basis functions of AU  symmetry.
 There are    11 symmetry adapted basis functions of B1U symmetry.
 There are     5 symmetry adapted basis functions of B2U symmetry.
 There are     5 symmetry adapted basis functions of B3U symmetry.
    44 basis functions,    72 primitive gaussians,    46 cartesian basis functions
     8 alpha electrons        7 beta electrons
       nuclear repulsion energy        27.4936102305 Hartrees.
 NAtoms=    2 NActive=    2 NUniq=    1 SFac= 4.00D+00 NAtFMM=   60 NAOKFM=F Big=F
 Integral buffers will be    131072 words long.
 Raffenetti 2 integral format.
 Two-electron integral symmetry is turned on.
 One-electron integrals computed using PRISM.
 NBasis=    44 RedAO= T EigKep=  1.27D-03  NBF=    11     1     5     5     1    11     5     5
 NBsUse=    44 1.00D-06 EigRej= -1.00D+00 NBFU=    11     1     5     5     1    11     5     5
 Initial guess from the checkpoint file:  "O2_dft002_N-1.chk"
 B after Tr=     0.000000    0.000000    0.000000
         Rot=    1.000000    0.000000    0.000000    0.000000 Ang=   0.00 deg.
 Initial guess orbital symmetries:
 Alpha Orbitals:
       Occupied  (SGG) (SGU) (SGG) (SGU) (SGG) (PIU) (PIU) (PIG)
       Virtual   (PIG) (SGU) (SGG) (PIU) (PIU) (SGU) (SGG) (PIG)
                 (PIG) (SGU) (PIU) (PIU) (SGU) (SGG) (PIG) (PIG)
                 (SGG) (SGU) (PIU) (PIU) (DLTG) (DLTG) (SGG) (DLTU)
                 (DLTU) (PIG) (PIG) (SGU) (PIU) (PIU) (SGG) (PIG)
                 (PIG) (SGU) (SGG) (SGU)
 Beta  Orbitals:
       Occupied  (SGG) (SGU) (SGG) (SGU) (SGG) (PIU) (PIU)
       Virtual   (PIG) (PIG) (SGG) (SGU) (PIU) (PIU) (SGG) (PIG)
                 (PIG) (SGU) (SGU) (SGU) (PIU) (PIU) (SGG) (PIG)
                 (PIG) (SGG) (SGU) (PIU) (PIU) (DLTG) (DLTG) (SGG)
                 (DLTU) (DLTU) (PIG) (PIG) (SGU) (PIU) (PIU) (SGG)
                 (PIG) (PIG) (SGU) (SGG) (SGU)
 Initial guess <Sx>= 0.0000 <Sy>= 0.0000 <Sz>= 0.5000 <S**2>= 0.7550 S= 0.5025
 Keep J ints in memory in symmetry-blocked form, NReq=1388265.
 Requested convergence on RMS density matrix=1.00D-08 within 128 cycles.
 Requested convergence on MAX density matrix=1.00D-06.
 Requested convergence on             energy=1.00D-06.
 No special actions if energy rises.
 SCF Done:  E(UB-LYP) =  -149.899066029     A.U. after    8 cycles
            NFock=  8  Conv=0.17D-08     -V/T= 2.0033
 <Sx>= 0.0000 <Sy>= 0.0000 <Sz>= 0.5000 <S**2>= 0.7514 S= 0.5007
 <L.S>= 0.000000000000E+00
 Annihilation of the first spin contaminant:
 S**2 before annihilation     0.7514,   after     0.7500
 QCSCF skips out because SCF is already converged.

 **********************************************************************

            Population analysis using the SCF density.

 **********************************************************************

 Orbital symmetries:
 Alpha Orbitals:
       Occupied  (SGG) (SGU) (SGG) (SGU) (SGG) (PIU) (PIU) (PIG)
       Virtual   (PIG) (SGU) (SGG) (PIU) (PIU) (SGU) (SGG) (PIG)
                 (PIG) (SGU) (PIU) (PIU) (SGU) (SGG) (PIG) (PIG)
                 (SGG) (SGU) (PIU) (PIU) (DLTG) (DLTG) (SGG) (DLTU)
                 (DLTU) (PIG) (PIG) (SGU) (PIU) (PIU) (SGG) (PIG)
                 (PIG) (SGU) (SGG) (SGU)
 Beta  Orbitals:
       Occupied  (SGG) (SGU) (SGG) (SGU) (SGG) (PIU) (PIU)
       Virtual   (PIG) (PIG) (SGU) (SGG) (PIU) (PIU) (SGU) (SGG)
                 (PIG) (PIG) (SGU) (PIU) (PIU) (SGU) (SGG) (PIG)
                 (PIG) (SGG) (SGU) (PIU) (PIU) (?A) (?A) (?A) (DLTU)
                 (DLTU) (PIG) (PIG) (SGU) (PIU) (SGG) (PIU) (PIG)
                 (PIG) (SGU) (SGG) (SGU)
 Unable to determine electronic state:  partially filled degenerate orbitals.
 Alpha  occ. eigenvalues --  -19.44577 -19.44575  -1.65050  -1.18946  -0.93004
 Alpha  occ. eigenvalues --   -0.92593  -0.91995  -0.69781
 Alpha virt. eigenvalues --   -0.68629  -0.33491  -0.19981  -0.12864  -0.12736
 Alpha virt. eigenvalues --   -0.10871  -0.05690  -0.02809  -0.02661   0.09957
 Alpha virt. eigenvalues --    0.53131   0.53158   0.57358   0.57815   0.62433
 Alpha virt. eigenvalues --    0.62799   0.76875   1.05664   1.72888   1.73140
 Alpha virt. eigenvalues --    2.02863   2.03197   2.25084   2.26625   2.26982
 Alpha virt. eigenvalues --    2.84832   2.85017   3.28526   4.12831   4.14096
 Alpha virt. eigenvalues --    4.17716   4.35327   4.36558   5.49081  48.65656
 Alpha virt. eigenvalues --   48.75030
  Beta  occ. eigenvalues --  -19.43195 -19.43192  -1.62687  -1.15465  -0.91184
  Beta  occ. eigenvalues --   -0.90652  -0.86270
  Beta virt. eigenvalues --   -0.66994  -0.62207  -0.31497  -0.19625  -0.12737
  Beta virt. eigenvalues --   -0.11984  -0.10519  -0.05648  -0.02532  -0.02023
  Beta virt. eigenvalues --    0.10253   0.53693   0.56001   0.57936   0.58312
  Beta virt. eigenvalues --    0.63413   0.65517   0.78182   1.07538   1.73397
  Beta virt. eigenvalues --    1.76775   2.07195   2.07394   2.27513   2.31391
  Beta virt. eigenvalues --    2.31407   2.85783   2.89515   3.30309   4.15278
  Beta virt. eigenvalues --    4.18716   4.19270   4.37825   4.41978   5.50772
  Beta virt. eigenvalues --   48.67297  48.76662
          Condensed to atoms (all electrons):
               1          2
     1  O    7.082637   0.417363
     2  O    0.417363   7.082637
          Atomic-Atomic Spin Densities.
               1          2
     1  O    0.637460  -0.137460
     2  O   -0.137460   0.637460
 Mulliken charges and spin densities:
               1          2
     1  O    0.500000   0.500000
     2  O    0.500000   0.500000
 Sum of Mulliken charges =   1.00000   1.00000
 Mulliken charges and spin densities with hydrogens summed into heavy atoms:
               1          2
     1  O    0.500000   0.500000
     2  O    0.500000   0.500000
 Electronic spatial extent (au):  <R**2>=             38.6147
 Charge=              1.0000 electrons
 Dipole moment (field-independent basis, Debye):
    X=              0.0000    Y=              0.0000    Z=             -0.0000  Tot=              0.0000
 Quadrupole moment (field-independent basis, Debye-Ang):
   XX=             -8.5230   YY=             -7.7340   ZZ=             -6.5276
   XY=              0.0000   XZ=             -0.0000   YZ=             -0.0000
 Traceless Quadrupole moment (field-independent basis, Debye-Ang):
   XX=             -0.9281   YY=             -0.1391   ZZ=              1.0672
   XY=              0.0000   XZ=             -0.0000   YZ=             -0.0000
 Octapole moment (field-independent basis, Debye-Ang**2):
  XXX=             -0.0000  YYY=             -0.0000  ZZZ=             -0.0000  XYY=             -0.0000
  XXY=             -0.0000  XXZ=              0.0000  XZZ=             -0.0000  YZZ=             -0.0000
  YYZ=             -0.0000  XYZ=             -0.0000
 Hexadecapole moment (field-independent basis, Debye-Ang**3):
 XXXX=             -5.2420 YYYY=             -4.5303 ZZZZ=            -22.4990 XXXY=              0.0000
 XXXZ=              0.0000 YYYX=              0.0000 YYYZ=             -0.0000 ZZZX=              0.0000
 ZZZY=             -0.0000 XXYY=             -1.6287 XXZZ=             -5.0251 YYZZ=             -4.4747
 XXYZ=             -0.0000 YYXZ=              0.0000 ZZXY=              0.0000
 N-N= 2.749361023050D+01 E-N=-4.027478240669D+02  KE= 1.493995450654D+02
 Symmetry AG   KE= 7.029738666355D+01
 Symmetry B1G  KE= 6.937870655654D-35
 Symmetry B2G  KE= 3.335558584582D+00
 Symmetry B3G  KE= 7.076067693144D-33
 Symmetry AU   KE= 1.970170663803D-34
 Symmetry B1U  KE= 6.561890907242D+01
 Symmetry B2U  KE= 5.073441562207D+00
 Symmetry B3U  KE= 5.074249182628D+00
                          Isotropic Fermi Contact Couplings
        Atom                 a.u.       MegaHertz       Gauss      10(-4) cm-1
     1  O(17)              0.01167      -7.07294      -2.52380      -2.35928
     2  O(17)              0.01167      -7.07294      -2.52380      -2.35928
 --------------------------------------------------------
       Center         ----  Spin Dipole Couplings  ----
                      3XX-RR        3YY-RR        3ZZ-RR
 --------------------------------------------------------
     1   Atom        2.730656     -1.385461     -1.345195
     2   Atom        2.730656     -1.385461     -1.345195
 --------------------------------------------------------
                        XY            XZ            YZ
 --------------------------------------------------------
     1   Atom        0.000000     -0.000000      0.000000
     2   Atom        0.000000     -0.000000      0.000000
 --------------------------------------------------------


 ---------------------------------------------------------------------------------
              Anisotropic Spin Dipole Couplings in Principal Axis System
 ---------------------------------------------------------------------------------

       Atom             a.u.   MegaHertz   Gauss  10(-4) cm-1        Axes

              Baa    -1.3855   100.251    35.772    33.440  0.0000  1.0000  0.0000
     1 O(17)  Bbb    -1.3452    97.337    34.732    32.468  0.0000  0.0000  1.0000
              Bcc     2.7307  -197.588   -70.504   -65.908  1.0000  0.0000  0.0000
 
              Baa    -1.3855   100.251    35.772    33.440  0.0000  1.0000  0.0000
     2 O(17)  Bbb    -1.3452    97.337    34.732    32.468  0.0000  0.0000  1.0000
              Bcc     2.7307  -197.588   -70.504   -65.908  1.0000  0.0000  0.0000
 

 ---------------------------------------------------------------------------------

 1\1\GINC-LOCALHOST\SP\UBLYP\6-311+G(d)\O2(1+,2)\ROOT\02-Aug-2020\0\\# 
 UBLYP/6-311+G(d) Geom=Check Guess=Read SCF=(VeryTight,MaxCyc=500,NoVar
 Acc,XQC) Int=(Grid=UltraFine,Acc2e=12)\\Single point of O2^+1 at the U
 BLYP/6-311+G(d) level of theory\\1,2\O,0,1.7529686167,-0.37828947,0.\O
 ,0,2.9847945233,-0.37828947,0.\\Version=ES64L-G09RevE.01\HF=-149.89906
 6\S2=0.751433\S2-1=0.\S2A=0.750001\RMSD=1.671e-09\Dipole=0.,0.,0.\Quad
 rupole=0.7934734,-0.103438,-0.6900353,0.,0.,0.\PG=D*H [C*(O1.O1)]\\@


 The lyf so short, the craft so long to lerne.
                             -- Chaucer
 Job cpu time:       0 days  0 hours  0 minutes 21.6 seconds.
 File lengths (MBytes):  RWF=      5 Int=      0 D2E=      0 Chk=      1 Scr=      1
 Normal termination of Gaussian 09 at Sun Aug  2 22:49:23 2020.
