 Entering Gaussian System, Link 0=/opt/g09E01ES64L/g09/g09
 Initial command:
 /opt/g09E01ES64L/g09/l1.exe "/home/scratch/Gau-10043.inp" -scrdir="/home/scratch/"
 Entering Link 1 = /opt/g09E01ES64L/g09/l1.exe PID=     10044.
  
 Copyright (c) 1988,1990,1992,1993,1995,1998,2003,2009,2015,
            Gaussian, Inc.  All Rights Reserved.
  
 This is part of the Gaussian(R) 09 program.  It is based on
 the Gaussian(R) 03 system (copyright 2003, Gaussian, Inc.),
 the Gaussian(R) 98 system (copyright 1998, Gaussian, Inc.),
 the Gaussian(R) 94 system (copyright 1995, Gaussian, Inc.),
 the Gaussian 92(TM) system (copyright 1992, Gaussian, Inc.),
 the Gaussian 90(TM) system (copyright 1990, Gaussian, Inc.),
 the Gaussian 88(TM) system (copyright 1988, Gaussian, Inc.),
 the Gaussian 86(TM) system (copyright 1986, Carnegie Mellon
 University), and the Gaussian 82(TM) system (copyright 1983,
 Carnegie Mellon University). Gaussian is a federally registered
 trademark of Gaussian, Inc.
  
 This software contains proprietary and confidential information,
 including trade secrets, belonging to Gaussian, Inc.
  
 This software is provided under written license and may be
 used, copied, transmitted, or stored only in accord with that
 written license.
  
 The following legend is applicable only to US Government
 contracts under FAR:
  
                    RESTRICTED RIGHTS LEGEND
  
 Use, reproduction and disclosure by the US Government is
 subject to restrictions as set forth in subparagraphs (a)
 and (c) of the Commercial Computer Software - Restricted
 Rights clause in FAR 52.227-19.
  
 Gaussian, Inc.
 340 Quinnipiac St., Bldg. 40, Wallingford CT 06492
  
  
 ---------------------------------------------------------------
 Warning -- This program may not be used in any manner that
 competes with the business of Gaussian, Inc. or will provide
 assistance to any competitor of Gaussian, Inc.  The licensee
 of this program is prohibited from giving any competitor of
 Gaussian, Inc. access to this program.  By using this program,
 the user acknowledges that Gaussian, Inc. is engaged in the
 business of creating and licensing software in the field of
 computational chemistry and represents and warrants to the
 licensee that it is not a competitor of Gaussian, Inc. and that
 it will not use this program in any manner prohibited above.
 ---------------------------------------------------------------
  

 Cite this work as:
 Gaussian 09, Revision E.01,
 M. J. Frisch, G. W. Trucks, H. B. Schlegel, G. E. Scuseria, 
 M. A. Robb, J. R. Cheeseman, G. Scalmani, V. Barone, B. Mennucci, 
 G. A. Petersson, H. Nakatsuji, M. Caricato, X. Li, H. P. Hratchian, 
 A. F. Izmaylov, J. Bloino, G. Zheng, J. L. Sonnenberg, M. Hada, 
 M. Ehara, K. Toyota, R. Fukuda, J. Hasegawa, M. Ishida, T. Nakajima, 
 Y. Honda, O. Kitao, H. Nakai, T. Vreven, J. A. Montgomery, Jr., 
 J. E. Peralta, F. Ogliaro, M. Bearpark, J. J. Heyd, E. Brothers, 
 K. N. Kudin, V. N. Staroverov, T. Keith, R. Kobayashi, J. Normand, 
 K. Raghavachari, A. Rendell, J. C. Burant, S. S. Iyengar, J. Tomasi, 
 M. Cossi, N. Rega, J. M. Millam, M. Klene, J. E. Knox, J. B. Cross, 
 V. Bakken, C. Adamo, J. Jaramillo, R. Gomperts, R. E. Stratmann, 
 O. Yazyev, A. J. Austin, R. Cammi, C. Pomelli, J. W. Ochterski, 
 R. L. Martin, K. Morokuma, V. G. Zakrzewski, G. A. Voth, 
 P. Salvador, J. J. Dannenberg, S. Dapprich, A. D. Daniels, 
 O. Farkas, J. B. Foresman, J. V. Ortiz, J. Cioslowski, 
 and D. J. Fox, Gaussian, Inc., Wallingford CT, 2013.
 
 ******************************************
 Gaussian 09:  ES64L-G09RevE.01 30-Nov-2015
                 2-Aug-2020 
 ******************************************
 %nprocshared=16
 Will use up to   16 processors via shared memory.
 %mem=16GB
 %chk=O2_dft005_N+1.chk
 ----------------------------------------------------------------------
 # UPBE1PBE/6-311+G(d) Geom=Check Guess=Read SCF=(VeryTight,MaxCyc=500,
 NoVarAcc,XQC) Int=(Grid=UltraFine,Acc2e=12)
 ----------------------------------------------------------------------
 1/29=2,38=1/1;
 2/12=2,40=1/2;
 3/5=4,6=6,7=11,11=2,14=-4,16=1,25=1,30=1,74=-13,75=-5,116=2/1,2,3;
 4/5=1/1;
 5/5=2,7=500,8=3,13=1,17=3,38=6,87=12/2,8;
 6/7=2,8=2,9=2,10=2,28=1/1;
 99/5=1,9=1/99;
 ----------------------------------------------------------------
 Single point of O2^-1 at the UPBE1PBE/6-311+G(d) level of theory
 ----------------------------------------------------------------
 Structure from the checkpoint file:  "O2_dft005_N+1.chk"
 Charge = -1 Multiplicity = 2
 Redundant internal coordinates found in file.
 O,0,1.7723419103,-0.37828947,0.
 O,0,2.9654212297,-0.37828947,0.
 Recover connectivity data from disk.
                          Input orientation:                          
 ---------------------------------------------------------------------
 Center     Atomic      Atomic             Coordinates (Angstroms)
 Number     Number       Type             X           Y           Z
 ---------------------------------------------------------------------
      1          8           0        1.772342   -0.378289    0.000000
      2          8           0        2.965421   -0.378289    0.000000
 ---------------------------------------------------------------------
 Stoichiometry    O2(1-,2)
 Framework group  D*H[C*(O.O)]
 Deg. of freedom     1
 Full point group                 D*H     NOp   8
 Largest Abelian subgroup         D2H     NOp   8
 Largest concise Abelian subgroup C2      NOp   2
                         Standard orientation:                         
 ---------------------------------------------------------------------
 Center     Atomic      Atomic             Coordinates (Angstroms)
 Number     Number       Type             X           Y           Z
 ---------------------------------------------------------------------
      1          8           0        0.000000    0.000000    0.596540
      2          8           0        0.000000    0.000000   -0.596540
 ---------------------------------------------------------------------
 Rotational constants (GHZ):      0.0000000     44.3942404     44.3942404
 Standard basis: 6-311+G(d) (5D, 7F)
 There are    12 symmetry adapted cartesian basis functions of AG  symmetry.
 There are     1 symmetry adapted cartesian basis functions of B1G symmetry.
 There are     5 symmetry adapted cartesian basis functions of B2G symmetry.
 There are     5 symmetry adapted cartesian basis functions of B3G symmetry.
 There are     1 symmetry adapted cartesian basis functions of AU  symmetry.
 There are    12 symmetry adapted cartesian basis functions of B1U symmetry.
 There are     5 symmetry adapted cartesian basis functions of B2U symmetry.
 There are     5 symmetry adapted cartesian basis functions of B3U symmetry.
 There are    11 symmetry adapted basis functions of AG  symmetry.
 There are     1 symmetry adapted basis functions of B1G symmetry.
 There are     5 symmetry adapted basis functions of B2G symmetry.
 There are     5 symmetry adapted basis functions of B3G symmetry.
 There are     1 symmetry adapted basis functions of AU  symmetry.
 There are    11 symmetry adapted basis functions of B1U symmetry.
 There are     5 symmetry adapted basis functions of B2U symmetry.
 There are     5 symmetry adapted basis functions of B3U symmetry.
    44 basis functions,    72 primitive gaussians,    46 cartesian basis functions
     9 alpha electrons        8 beta electrons
       nuclear repulsion energy        28.3864960161 Hartrees.
 NAtoms=    2 NActive=    2 NUniq=    1 SFac= 4.00D+00 NAtFMM=   60 NAOKFM=F Big=F
 Integral buffers will be    131072 words long.
 Raffenetti 2 integral format.
 Two-electron integral symmetry is turned on.
 One-electron integrals computed using PRISM.
 NBasis=    44 RedAO= T EigKep=  1.06D-03  NBF=    11     1     5     5     1    11     5     5
 NBsUse=    44 1.00D-06 EigRej= -1.00D+00 NBFU=    11     1     5     5     1    11     5     5
 Initial guess from the checkpoint file:  "O2_dft005_N+1.chk"
 B after Tr=     0.000000    0.000000    0.000000
         Rot=    1.000000    0.000000    0.000000    0.000000 Ang=   0.00 deg.
 Initial guess orbital symmetries:
 Alpha Orbitals:
       Occupied  (SGG) (SGU) (SGG) (SGU) (PIU) (PIU) (SGG) (PIG)
                 (PIG)
       Virtual   (SGG) (SGU) (PIU) (PIU) (SGG) (PIG) (PIG) (SGU)
                 (SGU) (PIU) (PIU) (SGG) (SGU) (PIG) (PIG) (SGG)
                 (SGU) (PIU) (PIU) (DLTG) (DLTG) (DLTU) (DLTU)
                 (SGG) (PIG) (PIG) (SGU) (PIU) (PIU) (SGG) (PIG)
                 (PIG) (SGU) (SGG) (SGU)
 Beta  Orbitals:
       Occupied  (SGG) (SGU) (SGG) (SGU) (SGG) (PIU) (PIU) (PIG)
       Virtual   (PIG) (SGG) (SGU) (PIU) (PIU) (SGG) (PIG) (PIG)
                 (SGU) (SGU) (SGG) (PIU) (PIU) (SGU) (PIG) (PIG)
                 (SGG) (SGU) (PIU) (PIU) (DLTG) (DLTG) (DLTU) (DLTU)
                 (SGG) (PIG) (PIG) (SGU) (PIU) (PIU) (SGG) (PIG)
                 (PIG) (SGU) (SGG) (SGU)
 Initial guess <Sx>= 0.0000 <Sy>= 0.0000 <Sz>= 0.5000 <S**2>= 0.7702 S= 0.5100
 Keep R1 and R2 ints in memory in symmetry-blocked form, NReq=1388265.
 Requested convergence on RMS density matrix=1.00D-08 within 128 cycles.
 Requested convergence on MAX density matrix=1.00D-06.
 Requested convergence on             energy=1.00D-06.
 No special actions if energy rises.
 An orbital has undefined symmetry, so N**3 symmetry is turned off.
 Density matrix breaks symmetry, PCut= 1.00D-04
 Density matrix has no symmetry -- integrals replicated.
 Density matrix breaks symmetry, PCut= 1.00D-04
 Density matrix has no symmetry -- integrals replicated.
 Density matrix breaks symmetry, PCut= 1.00D-04
 Density matrix has no symmetry -- integrals replicated.
 Density matrix breaks symmetry, PCut= 1.00D-04
 Density matrix has no symmetry -- integrals replicated.
 Density matrix breaks symmetry, PCut= 1.00D-04
 Density matrix has no symmetry -- integrals replicated.
 Density matrix breaks symmetry, PCut= 1.00D-04
 Density matrix has no symmetry -- integrals replicated.
 Density matrix breaks symmetry, PCut= 1.00D-04
 Density matrix has no symmetry -- integrals replicated.
 Density matrix breaks symmetry, PCut= 1.00D-04
 Density matrix has no symmetry -- integrals replicated.
 Density matrix breaks symmetry, PCut= 1.00D-04
 Density matrix has no symmetry -- integrals replicated.
 Density matrix breaks symmetry, PCut= 1.00D-04
 Density matrix has no symmetry -- integrals replicated.
 Density matrix breaks symmetry, PCut= 1.00D-04
 Density matrix has no symmetry -- integrals replicated.
 SCF Done:  E(UPBE1PBE) =  -150.206058056     A.U. after   10 cycles
            NFock= 10  Conv=0.30D-08     -V/T= 1.9994
 <Sx>= 0.0000 <Sy>= 0.0000 <Sz>= 0.5000 <S**2>= 0.7550 S= 0.5025
 <L.S>= 0.000000000000E+00
 Annihilation of the first spin contaminant:
 S**2 before annihilation     0.7550,   after     0.7500
 QCSCF skips out because SCF is already converged.

 **********************************************************************

            Population analysis using the SCF density.

 **********************************************************************

 Orbital symmetries:
 Alpha Orbitals:
       Occupied  (SGG) (SGU) (SGG) (SGU) (PIU) (SGG) (PIU) (PIG)
                 (PIG)
       Virtual   (SGU) (SGG) (PIU) (PIU) (PIG) (PIG) (SGG) (SGU)
                 (SGU) (PIU) (SGG) (PIU) (SGU) (PIG) (PIG) (SGG)
                 (SGU) (PIU) (PIU) (?A) (?A) (DLTU) (DLTU) (?A)
                 (PIG) (PIG) (SGU) (PIU) (PIU) (SGG) (PIG) (PIG)
                 (SGU) (SGG) (SGU)
 Beta  Orbitals:
       Occupied  (SGG) (SGU) (SGG) (SGU) (SGG) (PIU) (PIU) (?A)
       Virtual   (?A) (SGU) (SGG) (PIU) (PIU) (?A) (SGG) (?A) (SGU)
                 (SGU) (SGG) (PIU) (SGU) (PIU) (PIG) (PIG) (SGG)
                 (SGU) (PIU) (PIU) (DLTG) (DLTG) (DLTU) (DLTU)
                 (SGG) (PIG) (PIG) (SGU) (PIU) (PIU) (SGG) (PIG)
                 (PIG) (SGU) (SGG) (SGU)
 Unable to determine electronic state:  an orbital has unidentified symmetry.
 Alpha  occ. eigenvalues --  -18.93996 -18.93973  -0.95523  -0.46629  -0.21471
 Alpha  occ. eigenvalues --   -0.19227  -0.17353   0.05663   0.10031
 Alpha virt. eigenvalues --    0.30944   0.32467   0.35879   0.36692   0.42028
 Alpha virt. eigenvalues --    0.42766   0.43120   0.56131   0.65135   1.25844
 Alpha virt. eigenvalues --    1.26187   1.28487   1.28990   1.32407   1.34884
 Alpha virt. eigenvalues --    1.53891   1.83346   2.61920   2.65114   2.94337
 Alpha virt. eigenvalues --    2.94425   3.22870   3.22874   3.29649   3.84418
 Alpha virt. eigenvalues --    3.87967   4.25773   5.13038   5.16815   5.24845
 Alpha virt. eigenvalues --    5.38700   5.42595   6.60454  50.16970  50.31251
  Beta  occ. eigenvalues --  -18.92500 -18.92469  -0.92568  -0.41996  -0.17222
  Beta  occ. eigenvalues --   -0.16007  -0.12334   0.11662
  Beta virt. eigenvalues --    0.24136   0.31329   0.32961   0.36797   0.36989
  Beta virt. eigenvalues --    0.43006   0.43217   0.44449   0.56666   0.67317
  Beta virt. eigenvalues --    1.26869   1.29133   1.29887   1.29952   1.35633
  Beta virt. eigenvalues --    1.37102   1.55305   1.85478   2.65659   2.66072
  Beta virt. eigenvalues --    2.98636   2.98867   3.27599   3.27857   3.31892
  Beta virt. eigenvalues --    3.88750   3.89266   4.27443   5.17975   5.19362
  Beta virt. eigenvalues --    5.25816   5.43825   5.45124   6.62041  50.18284
  Beta virt. eigenvalues --   50.32554
          Condensed to atoms (all electrons):
               1          2
     1  O    8.970491  -0.470491
     2  O   -0.470491   8.970491
          Atomic-Atomic Spin Densities.
               1          2
     1  O    0.809218  -0.309218
     2  O   -0.309218   0.809218
 Mulliken charges and spin densities:
               1          2
     1  O   -0.500000   0.500000
     2  O   -0.500000   0.500000
 Sum of Mulliken charges =  -1.00000   1.00000
 Mulliken charges and spin densities with hydrogens summed into heavy atoms:
               1          2
     1  O   -0.500000   0.500000
     2  O   -0.500000   0.500000
 Electronic spatial extent (au):  <R**2>=             52.6948
 Charge=             -1.0000 electrons
 Dipole moment (field-independent basis, Debye):
    X=              0.0000    Y=              0.0000    Z=             -0.0000  Tot=              0.0000
 Quadrupole moment (field-independent basis, Debye-Ang):
   XX=            -13.3689   YY=            -13.3920   ZZ=            -16.7671
   XY=             -0.8084   XZ=             -0.0000   YZ=             -0.0000
 Traceless Quadrupole moment (field-independent basis, Debye-Ang):
   XX=              1.1404   YY=              1.1173   ZZ=             -2.2577
   XY=             -0.8084   XZ=             -0.0000   YZ=             -0.0000
 Octapole moment (field-independent basis, Debye-Ang**2):
  XXX=              0.0000  YYY=              0.0000  ZZZ=              0.0000  XYY=              0.0000
  XXY=              0.0000  XXZ=              0.0000  XZZ=             -0.0000  YZZ=             -0.0000
  YYZ=              0.0000  XYZ=              0.0000
 Hexadecapole moment (field-independent basis, Debye-Ang**3):
 XXXX=            -14.4065 YYYY=            -14.4624 ZZZZ=            -45.1473 XXXY=             -0.9799
 XXXZ=             -0.0000 YYYX=             -0.9799 YYYZ=             -0.0000 ZZZX=             -0.0000
 ZZZY=             -0.0000 XXYY=             -4.8115 XXZZ=            -11.2376 YYZZ=            -11.2711
 XXYZ=             -0.0000 YYXZ=             -0.0000 ZZXY=             -1.1734
 N-N= 2.838649601607D+01 E-N=-4.189047625496D+02  KE= 1.503023430331D+02
 Symmetry AG   KE= 6.912476662861D+01
 Symmetry B1G  KE= 2.746386650330D-04
 Symmetry B2G  KE= 3.970070664514D+00
 Symmetry B3G  KE= 4.005104498712D+00
 Symmetry AU   KE= 3.416359575464D-04
 Symmetry B1U  KE= 6.474887430666D+01
 Symmetry B2U  KE= 4.226852714071D+00
 Symmetry B3U  KE= 4.226057945900D+00
                          Isotropic Fermi Contact Couplings
        Atom                 a.u.       MegaHertz       Gauss      10(-4) cm-1
     1  O(17)              0.05210     -31.58230     -11.26935     -10.53472
     2  O(17)              0.05210     -31.58230     -11.26935     -10.53472
 --------------------------------------------------------
       Center         ----  Spin Dipole Couplings  ----
                      3XX-RR        3YY-RR        3ZZ-RR
 --------------------------------------------------------
     1   Atom        0.595081      0.547644     -1.142724
     2   Atom        0.595081      0.547644     -1.142724
 --------------------------------------------------------
                        XY            XZ            YZ
 --------------------------------------------------------
     1   Atom       -1.663577     -0.000000     -0.000000
     2   Atom       -1.663577     -0.000000     -0.000000
 --------------------------------------------------------


 ---------------------------------------------------------------------------------
              Anisotropic Spin Dipole Couplings in Principal Axis System
 ---------------------------------------------------------------------------------

       Atom             a.u.   MegaHertz   Gauss  10(-4) cm-1        Axes

              Baa    -1.1427    82.687    29.505    27.581  0.0000  0.0000  1.0000
     1 O(17)  Bbb    -1.0924    79.044    28.205    26.366  0.7020  0.7121 -0.0000
              Bcc     2.2351  -161.731   -57.710   -53.948  0.7121 -0.7020 -0.0000
 
              Baa    -1.1427    82.687    29.505    27.581  0.0000  0.0000  1.0000
     2 O(17)  Bbb    -1.0924    79.044    28.205    26.366  0.7020  0.7121 -0.0000
              Bcc     2.2351  -161.731   -57.710   -53.948  0.7121 -0.7020  0.0000
 

 ---------------------------------------------------------------------------------

 1\1\GINC-LOCALHOST\SP\UPBE1PBE\6-311+G(d)\O2(1-,2)\ROOT\02-Aug-2020\0\
 \# UPBE1PBE/6-311+G(d) Geom=Check Guess=Read SCF=(VeryTight,MaxCyc=500
 ,NoVarAcc,XQC) Int=(Grid=UltraFine,Acc2e=12)\\Single point of O2^-1 at
  the UPBE1PBE/6-311+G(d) level of theory\\-1,2\O,0,1.7723419103,-0.378
 28947,0.\O,0,2.9654212297,-0.37828947,0.\\Version=ES64L-G09RevE.01\HF=
 -150.2060581\S2=0.75501\S2-1=0.\S2A=0.750014\RMSD=3.025e-09\Dipole=0.,
 0.,0.\Quadrupole=-1.6785697,0.8307154,0.8478542,0.,0.,-0.6010393\PG=D*
 H [C*(O1.O1)]\\@


 ASKING DUMB QUESTIONS IS EASIER THAN CORECTING DUMB MISTAKES.
 Job cpu time:       0 days  0 hours  0 minutes 26.0 seconds.
 File lengths (MBytes):  RWF=      5 Int=      0 D2E=      0 Chk=      1 Scr=      1
 Normal termination of Gaussian 09 at Sun Aug  2 22:41:40 2020.
