 Entering Gaussian System, Link 0=/opt/g09E01ES64L/g09/g09
 Initial command:
 /opt/g09E01ES64L/g09/l1.exe "/home/scratch/Gau-11359.inp" -scrdir="/home/scratch/"
 Entering Link 1 = /opt/g09E01ES64L/g09/l1.exe PID=     11360.
  
 Copyright (c) 1988,1990,1992,1993,1995,1998,2003,2009,2015,
            Gaussian, Inc.  All Rights Reserved.
  
 This is part of the Gaussian(R) 09 program.  It is based on
 the Gaussian(R) 03 system (copyright 2003, Gaussian, Inc.),
 the Gaussian(R) 98 system (copyright 1998, Gaussian, Inc.),
 the Gaussian(R) 94 system (copyright 1995, Gaussian, Inc.),
 the Gaussian 92(TM) system (copyright 1992, Gaussian, Inc.),
 the Gaussian 90(TM) system (copyright 1990, Gaussian, Inc.),
 the Gaussian 88(TM) system (copyright 1988, Gaussian, Inc.),
 the Gaussian 86(TM) system (copyright 1986, Carnegie Mellon
 University), and the Gaussian 82(TM) system (copyright 1983,
 Carnegie Mellon University). Gaussian is a federally registered
 trademark of Gaussian, Inc.
  
 This software contains proprietary and confidential information,
 including trade secrets, belonging to Gaussian, Inc.
  
 This software is provided under written license and may be
 used, copied, transmitted, or stored only in accord with that
 written license.
  
 The following legend is applicable only to US Government
 contracts under FAR:
  
                    RESTRICTED RIGHTS LEGEND
  
 Use, reproduction and disclosure by the US Government is
 subject to restrictions as set forth in subparagraphs (a)
 and (c) of the Commercial Computer Software - Restricted
 Rights clause in FAR 52.227-19.
  
 Gaussian, Inc.
 340 Quinnipiac St., Bldg. 40, Wallingford CT 06492
  
  
 ---------------------------------------------------------------
 Warning -- This program may not be used in any manner that
 competes with the business of Gaussian, Inc. or will provide
 assistance to any competitor of Gaussian, Inc.  The licensee
 of this program is prohibited from giving any competitor of
 Gaussian, Inc. access to this program.  By using this program,
 the user acknowledges that Gaussian, Inc. is engaged in the
 business of creating and licensing software in the field of
 computational chemistry and represents and warrants to the
 licensee that it is not a competitor of Gaussian, Inc. and that
 it will not use this program in any manner prohibited above.
 ---------------------------------------------------------------
  

 Cite this work as:
 Gaussian 09, Revision E.01,
 M. J. Frisch, G. W. Trucks, H. B. Schlegel, G. E. Scuseria, 
 M. A. Robb, J. R. Cheeseman, G. Scalmani, V. Barone, B. Mennucci, 
 G. A. Petersson, H. Nakatsuji, M. Caricato, X. Li, H. P. Hratchian, 
 A. F. Izmaylov, J. Bloino, G. Zheng, J. L. Sonnenberg, M. Hada, 
 M. Ehara, K. Toyota, R. Fukuda, J. Hasegawa, M. Ishida, T. Nakajima, 
 Y. Honda, O. Kitao, H. Nakai, T. Vreven, J. A. Montgomery, Jr., 
 J. E. Peralta, F. Ogliaro, M. Bearpark, J. J. Heyd, E. Brothers, 
 K. N. Kudin, V. N. Staroverov, T. Keith, R. Kobayashi, J. Normand, 
 K. Raghavachari, A. Rendell, J. C. Burant, S. S. Iyengar, J. Tomasi, 
 M. Cossi, N. Rega, J. M. Millam, M. Klene, J. E. Knox, J. B. Cross, 
 V. Bakken, C. Adamo, J. Jaramillo, R. Gomperts, R. E. Stratmann, 
 O. Yazyev, A. J. Austin, R. Cammi, C. Pomelli, J. W. Ochterski, 
 R. L. Martin, K. Morokuma, V. G. Zakrzewski, G. A. Voth, 
 P. Salvador, J. J. Dannenberg, S. Dapprich, A. D. Daniels, 
 O. Farkas, J. B. Foresman, J. V. Ortiz, J. Cioslowski, 
 and D. J. Fox, Gaussian, Inc., Wallingford CT, 2013.
 
 ******************************************
 Gaussian 09:  ES64L-G09RevE.01 30-Nov-2015
                 2-Aug-2020 
 ******************************************
 %nprocshared=16
 Will use up to   16 processors via shared memory.
 %mem=16GB
 %chk=O2_dft005_N-1.chk
 ----------------------------------------------------------------------
 # UPBE1PBE/6-311+G(d) Geom=Check Guess=Read SCF=(VeryTight,MaxCyc=500,
 NoVarAcc,XQC) Int=(Grid=UltraFine,Acc2e=12)
 ----------------------------------------------------------------------
 1/29=2,38=1/1;
 2/12=2,40=1/2;
 3/5=4,6=6,7=11,11=2,14=-4,16=1,25=1,30=1,74=-13,75=-5,116=2/1,2,3;
 4/5=1/1;
 5/5=2,7=500,8=3,13=1,17=3,38=6,87=12/2,8;
 6/7=2,8=2,9=2,10=2,28=1/1;
 99/5=1,9=1/99;
 ----------------------------------------------------------------
 Single point of O2^+1 at the UPBE1PBE/6-311+G(d) level of theory
 ----------------------------------------------------------------
 Structure from the checkpoint file:  "O2_dft005_N-1.chk"
 Charge =  1 Multiplicity = 2
 Redundant internal coordinates found in file.
 O,0,1.7723419103,-0.37828947,0.
 O,0,2.9654212297,-0.37828947,0.
 Recover connectivity data from disk.
                          Input orientation:                          
 ---------------------------------------------------------------------
 Center     Atomic      Atomic             Coordinates (Angstroms)
 Number     Number       Type             X           Y           Z
 ---------------------------------------------------------------------
      1          8           0        1.772342   -0.378289    0.000000
      2          8           0        2.965421   -0.378289    0.000000
 ---------------------------------------------------------------------
 Stoichiometry    O2(1+,2)
 Framework group  D*H[C*(O.O)]
 Deg. of freedom     1
 Full point group                 D*H     NOp   8
 Largest Abelian subgroup         D2H     NOp   8
 Largest concise Abelian subgroup C2      NOp   2
                         Standard orientation:                         
 ---------------------------------------------------------------------
 Center     Atomic      Atomic             Coordinates (Angstroms)
 Number     Number       Type             X           Y           Z
 ---------------------------------------------------------------------
      1          8           0        0.000000    0.000000    0.596540
      2          8           0        0.000000    0.000000   -0.596540
 ---------------------------------------------------------------------
 Rotational constants (GHZ):      0.0000000     44.3942404     44.3942404
 Standard basis: 6-311+G(d) (5D, 7F)
 There are    12 symmetry adapted cartesian basis functions of AG  symmetry.
 There are     1 symmetry adapted cartesian basis functions of B1G symmetry.
 There are     5 symmetry adapted cartesian basis functions of B2G symmetry.
 There are     5 symmetry adapted cartesian basis functions of B3G symmetry.
 There are     1 symmetry adapted cartesian basis functions of AU  symmetry.
 There are    12 symmetry adapted cartesian basis functions of B1U symmetry.
 There are     5 symmetry adapted cartesian basis functions of B2U symmetry.
 There are     5 symmetry adapted cartesian basis functions of B3U symmetry.
 There are    11 symmetry adapted basis functions of AG  symmetry.
 There are     1 symmetry adapted basis functions of B1G symmetry.
 There are     5 symmetry adapted basis functions of B2G symmetry.
 There are     5 symmetry adapted basis functions of B3G symmetry.
 There are     1 symmetry adapted basis functions of AU  symmetry.
 There are    11 symmetry adapted basis functions of B1U symmetry.
 There are     5 symmetry adapted basis functions of B2U symmetry.
 There are     5 symmetry adapted basis functions of B3U symmetry.
    44 basis functions,    72 primitive gaussians,    46 cartesian basis functions
     8 alpha electrons        7 beta electrons
       nuclear repulsion energy        28.3864960161 Hartrees.
 NAtoms=    2 NActive=    2 NUniq=    1 SFac= 4.00D+00 NAtFMM=   60 NAOKFM=F Big=F
 Integral buffers will be    131072 words long.
 Raffenetti 2 integral format.
 Two-electron integral symmetry is turned on.
 One-electron integrals computed using PRISM.
 NBasis=    44 RedAO= T EigKep=  1.06D-03  NBF=    11     1     5     5     1    11     5     5
 NBsUse=    44 1.00D-06 EigRej= -1.00D+00 NBFU=    11     1     5     5     1    11     5     5
 Initial guess from the checkpoint file:  "O2_dft005_N-1.chk"
 B after Tr=     0.000000    0.000000    0.000000
         Rot=    1.000000    0.000000    0.000000    0.000000 Ang=   0.00 deg.
 Initial guess orbital symmetries:
 Alpha Orbitals:
       Occupied  (SGG) (SGU) (SGG) (SGU) (PIU) (PIU) (SGG) (PIG)
       Virtual   (PIG) (SGG) (SGU) (PIU) (PIU) (SGG) (PIG) (PIG)
                 (SGU) (SGU) (PIU) (PIU) (SGG) (SGU) (PIG) (PIG)
                 (SGG) (SGU) (PIU) (PIU) (DLTG) (DLTG) (DLTU) (DLTU)
                 (SGG) (PIG) (PIG) (SGU) (PIU) (PIU) (SGG) (PIG)
                 (PIG) (SGU) (SGG) (SGU)
 Beta  Orbitals:
       Occupied  (SGG) (SGU) (SGG) (SGU) (SGG) (PIU) (PIU)
       Virtual   (PIG) (PIG) (SGG) (SGU) (PIU) (PIU) (SGG) (PIG)
                 (PIG) (SGU) (SGU) (SGG) (PIU) (PIU) (SGU) (PIG)
                 (PIG) (SGG) (SGU) (PIU) (PIU) (DLTG) (DLTG) (DLTU)
                 (DLTU) (SGG) (PIG) (PIG) (SGU) (PIU) (PIU) (SGG)
                 (PIG) (PIG) (SGU) (SGG) (SGU)
 Initial guess <Sx>= 0.0000 <Sy>= 0.0000 <Sz>= 0.5000 <S**2>= 0.7591 S= 0.5045
 Keep R1 and R2 ints in memory in symmetry-blocked form, NReq=1388265.
 Requested convergence on RMS density matrix=1.00D-08 within 128 cycles.
 Requested convergence on MAX density matrix=1.00D-06.
 Requested convergence on             energy=1.00D-06.
 No special actions if energy rises.
 An orbital has undefined symmetry, so N**3 symmetry is turned off.
 Density matrix breaks symmetry, PCut= 1.00D-04
 Density matrix has no symmetry -- integrals replicated.
 Density matrix breaks symmetry, PCut= 1.00D-04
 Density matrix has no symmetry -- integrals replicated.
 Density matrix breaks symmetry, PCut= 1.00D-04
 Density matrix has no symmetry -- integrals replicated.
 Density matrix breaks symmetry, PCut= 1.00D-04
 Density matrix has no symmetry -- integrals replicated.
 Density matrix breaks symmetry, PCut= 1.00D-04
 Density matrix has no symmetry -- integrals replicated.
 Density matrix breaks symmetry, PCut= 1.00D-04
 Density matrix has no symmetry -- integrals replicated.
 Density matrix breaks symmetry, PCut= 1.00D-04
 Density matrix has no symmetry -- integrals replicated.
 Density matrix breaks symmetry, PCut= 1.00D-04
 Density matrix has no symmetry -- integrals replicated.
 Density matrix breaks symmetry, PCut= 1.00D-04
 Density matrix has no symmetry -- integrals replicated.
 SCF Done:  E(UPBE1PBE) =  -149.737844822     A.U. after    8 cycles
            NFock=  8  Conv=0.51D-08     -V/T= 2.0041
 <Sx>= 0.0000 <Sy>= 0.0000 <Sz>= 0.5000 <S**2>= 0.7528 S= 0.5014
 <L.S>= 0.000000000000E+00
 Annihilation of the first spin contaminant:
 S**2 before annihilation     0.7528,   after     0.7500
 QCSCF skips out because SCF is already converged.

 **********************************************************************

            Population analysis using the SCF density.

 **********************************************************************

 Orbital symmetries:
 Alpha Orbitals:
       Occupied  (SGG) (SGU) (SGG) (SGU) (PIU) (SGG) (PIU) (PIG)
       Virtual   (PIG) (SGU) (SGG) (PIU) (PIU) (SGU) (SGG) (PIG)
                 (PIG) (SGU) (PIU) (PIU) (SGG) (SGU) (PIG) (PIG)
                 (SGG) (SGU) (PIU) (PIU) (DLTG) (DLTG) (DLTU) (DLTU)
                 (SGG) (PIG) (PIG) (SGU) (PIU) (PIU) (SGG) (PIG)
                 (PIG) (SGU) (SGG) (SGU)
 Beta  Orbitals:
       Occupied  (SGG) (SGU) (SGG) (SGU) (SGG) (PIU) (PIU)
       Virtual   (PIG) (PIG) (SGU) (SGG) (PIU) (PIU) (SGU) (SGG)
                 (PIG) (PIG) (SGU) (PIU) (SGG) (PIU) (SGU) (PIG)
                 (PIG) (SGG) (SGU) (PIU) (PIU) (?A) (?A) (DLTU)
                 (DLTU) (?A) (PIG) (PIG) (SGU) (PIU) (PIU) (SGG)
                 (PIG) (PIG) (SGU) (SGG) (SGU)
 Unable to determine electronic state:  partially filled degenerate orbitals.
 Alpha  occ. eigenvalues --  -19.89543 -19.89509  -1.82754  -1.29929  -1.04500
 Alpha  occ. eigenvalues --   -1.01962  -0.99899  -0.77790
 Alpha virt. eigenvalues --   -0.62731  -0.21965  -0.16323  -0.09539  -0.09528
 Alpha virt. eigenvalues --   -0.06287  -0.02424   0.00460   0.00746   0.13312
 Alpha virt. eigenvalues --    0.59138   0.59753   0.62150   0.64229   0.68388
 Alpha virt. eigenvalues --    0.69311   0.82605   1.13367   1.78472   1.78694
 Alpha virt. eigenvalues --    2.08601   2.08831   2.37232   2.37486   2.44659
 Alpha virt. eigenvalues --    3.01498   3.01901   3.43106   4.28219   4.29731
 Alpha virt. eigenvalues --    4.39003   4.53458   4.54824   5.73858  49.22134
 Alpha virt. eigenvalues --   49.36405
  Beta  occ. eigenvalues --  -19.87823 -19.87780  -1.79648  -1.24927  -0.99749
  Beta  occ. eigenvalues --   -0.98425  -0.93621
  Beta virt. eigenvalues --   -0.60907  -0.55693  -0.19743  -0.15896  -0.09371
  Beta virt. eigenvalues --   -0.08557  -0.05665  -0.02322   0.00928   0.01540
  Beta virt. eigenvalues --    0.13658   0.60347   0.62638   0.62895   0.64883
  Beta virt. eigenvalues --    0.69982   0.72293   0.83995   1.15359   1.79151
  Beta virt. eigenvalues --    1.82725   2.13192   2.13334   2.42525   2.42549
  Beta virt. eigenvalues --    2.47269   3.02613   3.06599   3.44887   4.30898
  Beta virt. eigenvalues --    4.35245   4.39983   4.56065   4.60576   5.75497
  Beta virt. eigenvalues --   49.23597  49.37857
          Condensed to atoms (all electrons):
               1          2
     1  O    7.012436   0.487564
     2  O    0.487564   7.012436
          Atomic-Atomic Spin Densities.
               1          2
     1  O    0.656862  -0.156862
     2  O   -0.156862   0.656862
 Mulliken charges and spin densities:
               1          2
     1  O    0.500000   0.500000
     2  O    0.500000   0.500000
 Sum of Mulliken charges =   1.00000   1.00000
 Mulliken charges and spin densities with hydrogens summed into heavy atoms:
               1          2
     1  O    0.500000   0.500000
     2  O    0.500000   0.500000
 Electronic spatial extent (au):  <R**2>=             37.2208
 Charge=              1.0000 electrons
 Dipole moment (field-independent basis, Debye):
    X=             -0.0000    Y=             -0.0000    Z=             -0.0000  Tot=              0.0000
 Quadrupole moment (field-independent basis, Debye-Ang):
   XX=             -8.0483   YY=             -8.0483   ZZ=             -6.6185
   XY=              0.3813   XZ=             -0.0000   YZ=              0.0000
 Traceless Quadrupole moment (field-independent basis, Debye-Ang):
   XX=             -0.4766   YY=             -0.4766   ZZ=              0.9532
   XY=              0.3813   XZ=             -0.0000   YZ=              0.0000
 Octapole moment (field-independent basis, Debye-Ang**2):
  XXX=             -0.0000  YYY=             -0.0000  ZZZ=             -0.0000  XYY=             -0.0000
  XXY=             -0.0000  XXZ=             -0.0000  XZZ=             -0.0000  YZZ=             -0.0000
  YYZ=             -0.0000  XYZ=             -0.0000
 Hexadecapole moment (field-independent basis, Debye-Ang**3):
 XXXX=             -4.7249 YYYY=             -4.7249 ZZZZ=            -21.2721 XXXY=              0.1614
 XXXZ=             -0.0000 YYYX=              0.1614 YYYZ=             -0.0000 ZZZX=             -0.0000
 ZZZY=              0.0000 XXYY=             -1.5750 XXZZ=             -4.4831 YYZZ=             -4.4831
 XXYZ=             -0.0000 YYXZ=             -0.0000 ZZXY=              0.2570
 N-N= 2.838649601607D+01 E-N=-4.040081811204D+02  KE= 1.491202265512D+02
 Symmetry AG   KE= 7.030625982940D+01
 Symmetry B1G  KE= 3.612244679844D-04
 Symmetry B2G  KE= 1.664691796498D+00
 Symmetry B3G  KE= 1.664692354916D+00
 Symmetry AU   KE= 4.396708844696D-04
 Symmetry B1U  KE= 6.555484462761D+01
 Symmetry B2U  KE= 4.964468528497D+00
 Symmetry B3U  KE= 4.964468518942D+00
                          Isotropic Fermi Contact Couplings
        Atom                 a.u.       MegaHertz       Gauss      10(-4) cm-1
     1  O(17)              0.03741     -22.67887      -8.09238      -7.56486
     2  O(17)              0.03741     -22.67887      -8.09238      -7.56486
 --------------------------------------------------------
       Center         ----  Spin Dipole Couplings  ----
                      3XX-RR        3YY-RR        3ZZ-RR
 --------------------------------------------------------
     1   Atom        0.684238      0.684238     -1.368476
     2   Atom        0.684238      0.684238     -1.368476
 --------------------------------------------------------
                        XY            XZ            YZ
 --------------------------------------------------------
     1   Atom       -2.083543     -0.000000      0.000000
     2   Atom       -2.083543     -0.000000      0.000000
 --------------------------------------------------------


 ---------------------------------------------------------------------------------
              Anisotropic Spin Dipole Couplings in Principal Axis System
 ---------------------------------------------------------------------------------

       Atom             a.u.   MegaHertz   Gauss  10(-4) cm-1        Axes

              Baa    -1.3993   101.253    36.129    33.774  0.7071  0.7071  0.0000
     1 O(17)  Bbb    -1.3685    99.022    35.334    33.030  0.0000  0.0000  1.0000
              Bcc     2.7678  -200.275   -71.463   -66.804  0.7071 -0.7071  0.0000
 
              Baa    -1.3993   101.253    36.129    33.774  0.7071  0.7071  0.0000
     2 O(17)  Bbb    -1.3685    99.022    35.334    33.030  0.0000  0.0000  1.0000
              Bcc     2.7678  -200.275   -71.463   -66.804  0.7071 -0.7071  0.0000
 

 ---------------------------------------------------------------------------------

 1\1\GINC-LOCALHOST\SP\UPBE1PBE\6-311+G(d)\O2(1+,2)\ROOT\02-Aug-2020\0\
 \# UPBE1PBE/6-311+G(d) Geom=Check Guess=Read SCF=(VeryTight,MaxCyc=500
 ,NoVarAcc,XQC) Int=(Grid=UltraFine,Acc2e=12)\\Single point of O2^+1 at
  the UPBE1PBE/6-311+G(d) level of theory\\1,2\O,0,1.7723419103,-0.3782
 8947,0.\O,0,2.9654212297,-0.37828947,0.\\Version=ES64L-G09RevE.01\HF=-
 149.7378448\S2=0.752849\S2-1=0.\S2A=0.750004\RMSD=5.092e-09\Dipole=0.,
 0.,0.\Quadrupole=0.7086805,-0.3543403,-0.3543402,0.,0.,0.2835141\PG=D*
 H [C*(O1.O1)]\\@


 IF IT'S NOT TRUE, IT'S WELL INVENTED -- DANTE
 Job cpu time:       0 days  0 hours  0 minutes 24.8 seconds.
 File lengths (MBytes):  RWF=      5 Int=      0 D2E=      0 Chk=      1 Scr=      1
 Normal termination of Gaussian 09 at Sun Aug  2 22:49:32 2020.
