 Entering Gaussian System, Link 0=/opt/g09E01ES64L/g09/g09
 Initial command:
 /opt/g09E01ES64L/g09/l1.exe "/home/scratch/Gau-9545.inp" -scrdir="/home/scratch/"
 Entering Link 1 = /opt/g09E01ES64L/g09/l1.exe PID=      9546.
  
 Copyright (c) 1988,1990,1992,1993,1995,1998,2003,2009,2015,
            Gaussian, Inc.  All Rights Reserved.
  
 This is part of the Gaussian(R) 09 program.  It is based on
 the Gaussian(R) 03 system (copyright 2003, Gaussian, Inc.),
 the Gaussian(R) 98 system (copyright 1998, Gaussian, Inc.),
 the Gaussian(R) 94 system (copyright 1995, Gaussian, Inc.),
 the Gaussian 92(TM) system (copyright 1992, Gaussian, Inc.),
 the Gaussian 90(TM) system (copyright 1990, Gaussian, Inc.),
 the Gaussian 88(TM) system (copyright 1988, Gaussian, Inc.),
 the Gaussian 86(TM) system (copyright 1986, Carnegie Mellon
 University), and the Gaussian 82(TM) system (copyright 1983,
 Carnegie Mellon University). Gaussian is a federally registered
 trademark of Gaussian, Inc.
  
 This software contains proprietary and confidential information,
 including trade secrets, belonging to Gaussian, Inc.
  
 This software is provided under written license and may be
 used, copied, transmitted, or stored only in accord with that
 written license.
  
 The following legend is applicable only to US Government
 contracts under FAR:
  
                    RESTRICTED RIGHTS LEGEND
  
 Use, reproduction and disclosure by the US Government is
 subject to restrictions as set forth in subparagraphs (a)
 and (c) of the Commercial Computer Software - Restricted
 Rights clause in FAR 52.227-19.
  
 Gaussian, Inc.
 340 Quinnipiac St., Bldg. 40, Wallingford CT 06492
  
  
 ---------------------------------------------------------------
 Warning -- This program may not be used in any manner that
 competes with the business of Gaussian, Inc. or will provide
 assistance to any competitor of Gaussian, Inc.  The licensee
 of this program is prohibited from giving any competitor of
 Gaussian, Inc. access to this program.  By using this program,
 the user acknowledges that Gaussian, Inc. is engaged in the
 business of creating and licensing software in the field of
 computational chemistry and represents and warrants to the
 licensee that it is not a competitor of Gaussian, Inc. and that
 it will not use this program in any manner prohibited above.
 ---------------------------------------------------------------
  

 Cite this work as:
 Gaussian 09, Revision E.01,
 M. J. Frisch, G. W. Trucks, H. B. Schlegel, G. E. Scuseria, 
 M. A. Robb, J. R. Cheeseman, G. Scalmani, V. Barone, B. Mennucci, 
 G. A. Petersson, H. Nakatsuji, M. Caricato, X. Li, H. P. Hratchian, 
 A. F. Izmaylov, J. Bloino, G. Zheng, J. L. Sonnenberg, M. Hada, 
 M. Ehara, K. Toyota, R. Fukuda, J. Hasegawa, M. Ishida, T. Nakajima, 
 Y. Honda, O. Kitao, H. Nakai, T. Vreven, J. A. Montgomery, Jr., 
 J. E. Peralta, F. Ogliaro, M. Bearpark, J. J. Heyd, E. Brothers, 
 K. N. Kudin, V. N. Staroverov, T. Keith, R. Kobayashi, J. Normand, 
 K. Raghavachari, A. Rendell, J. C. Burant, S. S. Iyengar, J. Tomasi, 
 M. Cossi, N. Rega, J. M. Millam, M. Klene, J. E. Knox, J. B. Cross, 
 V. Bakken, C. Adamo, J. Jaramillo, R. Gomperts, R. E. Stratmann, 
 O. Yazyev, A. J. Austin, R. Cammi, C. Pomelli, J. W. Ochterski, 
 R. L. Martin, K. Morokuma, V. G. Zakrzewski, G. A. Voth, 
 P. Salvador, J. J. Dannenberg, S. Dapprich, A. D. Daniels, 
 O. Farkas, J. B. Foresman, J. V. Ortiz, J. Cioslowski, 
 and D. J. Fox, Gaussian, Inc., Wallingford CT, 2013.
 
 ******************************************
 Gaussian 09:  ES64L-G09RevE.01 30-Nov-2015
                 2-Aug-2020 
 ******************************************
 %nprocshared=16
 Will use up to   16 processors via shared memory.
 %mem=16GB
 %chk=O2_dft003_N+1.chk
 ----------------------------------------------------------------------
 # UVSXC/6-311+G(d) Geom=Check Guess=Read SCF=(VeryTight,MaxCyc=500,NoV
 arAcc,XQC) Int=(Grid=UltraFine,Acc2e=12)
 ----------------------------------------------------------------------
 1/29=2,38=1/1;
 2/12=2,40=1/2;
 3/5=4,6=6,7=11,11=2,14=-4,16=1,25=1,30=1,74=1210,75=-5,116=2/1,2,3;
 4/5=1/1;
 5/5=2,7=500,8=3,13=1,17=3,38=6,87=12/2,8;
 6/7=2,8=2,9=2,10=2,28=1/1;
 99/5=1,9=1/99;
 -------------------------------------------------------------
 Single point of O2^-1 at the UVSXC/6-311+G(d) level of theory
 -------------------------------------------------------------
 Structure from the checkpoint file:  "O2_dft003_N+1.chk"
 Charge = -1 Multiplicity = 2
 Redundant internal coordinates found in file.
 O,0,1.7620243313,-0.37828947,0.
 O,0,2.9757388087,-0.37828947,0.
 Recover connectivity data from disk.
                          Input orientation:                          
 ---------------------------------------------------------------------
 Center     Atomic      Atomic             Coordinates (Angstroms)
 Number     Number       Type             X           Y           Z
 ---------------------------------------------------------------------
      1          8           0        1.762024   -0.378289    0.000000
      2          8           0        2.975739   -0.378289    0.000000
 ---------------------------------------------------------------------
 Stoichiometry    O2(1-,2)
 Framework group  D*H[C*(O.O)]
 Deg. of freedom     1
 Full point group                 D*H     NOp   8
 Largest Abelian subgroup         D2H     NOp   8
 Largest concise Abelian subgroup C2      NOp   2
                         Standard orientation:                         
 ---------------------------------------------------------------------
 Center     Atomic      Atomic             Coordinates (Angstroms)
 Number     Number       Type             X           Y           Z
 ---------------------------------------------------------------------
      1          8           0        0.000000    0.000000    0.606857
      2          8           0        0.000000    0.000000   -0.606857
 ---------------------------------------------------------------------
 Rotational constants (GHZ):      0.0000000     42.8975215     42.8975215
 Standard basis: 6-311+G(d) (5D, 7F)
 There are    12 symmetry adapted cartesian basis functions of AG  symmetry.
 There are     1 symmetry adapted cartesian basis functions of B1G symmetry.
 There are     5 symmetry adapted cartesian basis functions of B2G symmetry.
 There are     5 symmetry adapted cartesian basis functions of B3G symmetry.
 There are     1 symmetry adapted cartesian basis functions of AU  symmetry.
 There are    12 symmetry adapted cartesian basis functions of B1U symmetry.
 There are     5 symmetry adapted cartesian basis functions of B2U symmetry.
 There are     5 symmetry adapted cartesian basis functions of B3U symmetry.
 There are    11 symmetry adapted basis functions of AG  symmetry.
 There are     1 symmetry adapted basis functions of B1G symmetry.
 There are     5 symmetry adapted basis functions of B2G symmetry.
 There are     5 symmetry adapted basis functions of B3G symmetry.
 There are     1 symmetry adapted basis functions of AU  symmetry.
 There are    11 symmetry adapted basis functions of B1U symmetry.
 There are     5 symmetry adapted basis functions of B2U symmetry.
 There are     5 symmetry adapted basis functions of B3U symmetry.
    44 basis functions,    72 primitive gaussians,    46 cartesian basis functions
     9 alpha electrons        8 beta electrons
       nuclear repulsion energy        27.9038785299 Hartrees.
 NAtoms=    2 NActive=    2 NUniq=    1 SFac= 4.00D+00 NAtFMM=   60 NAOKFM=F Big=F
 Integral buffers will be    131072 words long.
 Raffenetti 2 integral format.
 Two-electron integral symmetry is turned on.
 One-electron integrals computed using PRISM.
 NBasis=    44 RedAO= T EigKep=  1.16D-03  NBF=    11     1     5     5     1    11     5     5
 NBsUse=    44 1.00D-06 EigRej= -1.00D+00 NBFU=    11     1     5     5     1    11     5     5
 Initial guess from the checkpoint file:  "O2_dft003_N+1.chk"
 B after Tr=     0.000000    0.000000    0.000000
         Rot=    1.000000    0.000000    0.000000    0.000000 Ang=   0.00 deg.
 Initial guess orbital symmetries:
 Alpha Orbitals:
       Occupied  (SGG) (SGU) (SGG) (SGU) (SGG) (PIU) (PIU) (PIG)
                 (PIG)
       Virtual   (SGU) (SGG) (PIU) (PIU) (SGU) (SGG) (PIG) (PIG)
                 (SGU) (PIU) (PIU) (SGG) (SGU) (PIG) (PIG) (SGG)
                 (SGU) (PIU) (PIU) (DLTG) (DLTG) (DLTU) (DLTU)
                 (SGG) (PIG) (PIG) (SGU) (PIU) (PIU) (SGG) (PIG)
                 (PIG) (SGU) (SGG) (SGU)
 Beta  Orbitals:
       Occupied  (SGG) (SGU) (SGG) (SGU) (SGG) (PIU) (PIU) (PIG)
       Virtual   (PIG) (SGG) (SGU) (PIU) (PIU) (SGG) (PIG) (PIG)
                 (SGU) (SGU) (SGG) (SGU) (PIU) (PIU) (PIG) (PIG)
                 (SGG) (SGU) (PIU) (PIU) (DLTG) (DLTG) (SGG) (DLTU)
                 (DLTU) (PIG) (PIG) (SGU) (PIU) (PIU) (SGG) (PIG)
                 (PIG) (SGU) (SGG) (SGU)
 Initial guess <Sx>= 0.0000 <Sy>= 0.0000 <Sz>= 0.5000 <S**2>= 0.7637 S= 0.5068
 Keep J ints in memory in symmetry-blocked form, NReq=1389031.
 Requested convergence on RMS density matrix=1.00D-08 within 128 cycles.
 Requested convergence on MAX density matrix=1.00D-06.
 Requested convergence on             energy=1.00D-06.
 No special actions if energy rises.
 An orbital has undefined symmetry, so N**3 symmetry is turned off.
 Density matrix breaks symmetry, PCut= 1.00D-04
 Density matrix has no symmetry -- integrals replicated.
 Density matrix breaks symmetry, PCut= 1.00D-04
 Density matrix has no symmetry -- integrals replicated.
 Density matrix breaks symmetry, PCut= 1.00D-04
 Density matrix has no symmetry -- integrals replicated.
 Density matrix breaks symmetry, PCut= 1.00D-04
 Density matrix has no symmetry -- integrals replicated.
 Density matrix breaks symmetry, PCut= 1.00D-04
 Density matrix has no symmetry -- integrals replicated.
 Density matrix breaks symmetry, PCut= 1.00D-04
 Density matrix has no symmetry -- integrals replicated.
 Density matrix breaks symmetry, PCut= 1.00D-04
 Density matrix has no symmetry -- integrals replicated.
 Density matrix breaks symmetry, PCut= 1.00D-04
 Density matrix has no symmetry -- integrals replicated.
 Density matrix breaks symmetry, PCut= 1.00D-04
 Density matrix has no symmetry -- integrals replicated.
 Density matrix breaks symmetry, PCut= 1.00D-04
 Density matrix has no symmetry -- integrals replicated.
 Density matrix breaks symmetry, PCut= 1.00D-04
 Density matrix has no symmetry -- integrals replicated.
 Density matrix breaks symmetry, PCut= 1.00D-04
 Density matrix has no symmetry -- integrals replicated.
 Density matrix breaks symmetry, PCut= 1.00D-04
 Density matrix has no symmetry -- integrals replicated.
 SCF Done:  E(UVSXC) =  -150.401469300     A.U. after   12 cycles
            NFock= 12  Conv=0.88D-08     -V/T= 1.9992
 <Sx>= 0.0000 <Sy>= 0.0000 <Sz>= 0.5000 <S**2>= 0.7552 S= 0.5026
 <L.S>= 0.000000000000E+00
 Annihilation of the first spin contaminant:
 S**2 before annihilation     0.7552,   after     0.7500
 QCSCF skips out because SCF is already converged.

 **********************************************************************

            Population analysis using the SCF density.

 **********************************************************************

 Orbital symmetries:
 Alpha Orbitals:
       Occupied  (SGG) (SGU) (SGG) (SGU) (PIU) (SGG) (PIU) (PIG)
                 (PIG)
       Virtual   (SGU) (SGG) (PIU) (PIU) (PIG) (PIG) (SGG) (SGU)
                 (SGU) (PIU) (SGG) (SGU) (PIU) (PIG) (PIG) (SGG)
                 (SGU) (PIU) (PIU) (?A) (?A) (DLTU) (DLTU) (?A)
                 (PIG) (PIG) (SGU) (PIU) (PIU) (SGG) (PIG) (PIG)
                 (SGU) (SGG) (SGU)
 Beta  Orbitals:
       Occupied  (SGG) (SGU) (SGG) (SGU) (SGG) (PIU) (PIU) (PIG)
       Virtual   (PIG) (SGU) (SGG) (PIU) (PIU) (PIG) (SGG) (PIG)
                 (SGU) (SGU) (SGG) (PIU) (SGU) (PIU) (PIG) (PIG)
                 (SGG) (SGU) (PIU) (PIU) (?A) (?A) (DLTU) (?A)
                 (DLTU) (PIG) (PIG) (SGU) (PIU) (PIU) (SGG) (PIG)
                 (PIG) (SGU) (SGG) (SGU)
 Unable to determine electronic state:  partially filled degenerate orbitals.
 Alpha  occ. eigenvalues --  -18.59145 -18.59141  -0.84491  -0.39202  -0.13722
 Alpha  occ. eigenvalues --   -0.13369  -0.10055   0.11232   0.14966
 Alpha virt. eigenvalues --    0.30389   0.31213   0.35949   0.36572   0.41051
 Alpha virt. eigenvalues --    0.41749   0.43286   0.56354   0.56645   1.23209
 Alpha virt. eigenvalues --    1.24964   1.25482   1.25589   1.29666   1.31739
 Alpha virt. eigenvalues --    1.51373   1.79538   2.56316   2.59725   2.88685
 Alpha virt. eigenvalues --    2.88750   3.14821   3.14869   3.17515   3.73864
 Alpha virt. eigenvalues --    3.77615   4.18974   5.06884   5.10745   5.16551
 Alpha virt. eigenvalues --    5.31100   5.35073   6.50906  49.82920  49.94282
  Beta  occ. eigenvalues --  -18.57779 -18.57774  -0.81593  -0.35016  -0.11034
  Beta  occ. eigenvalues --   -0.08308  -0.07295   0.17069
  Beta virt. eigenvalues --    0.18781   0.30682   0.31701   0.36283   0.36657
  Beta virt. eigenvalues --    0.41702   0.42833   0.43875   0.56612   0.59402
  Beta virt. eigenvalues --    1.25500   1.26186   1.26252   1.27628   1.32097
  Beta virt. eigenvalues --    1.34474   1.52864   1.82185   2.60391   2.60709
  Beta virt. eigenvalues --    2.93685   2.94294   3.20125   3.20234   3.20794
  Beta virt. eigenvalues --    3.78559   3.79990   4.21076   5.12194   5.15441
  Beta virt. eigenvalues --    5.18171   5.36588   5.39834   6.53471  49.83047
  Beta virt. eigenvalues --   49.94401
          Condensed to atoms (all electrons):
               1          2
     1  O    8.939261  -0.439261
     2  O   -0.439261   8.939261
          Atomic-Atomic Spin Densities.
               1          2
     1  O    0.754086  -0.254086
     2  O   -0.254086   0.754086
 Mulliken charges and spin densities:
               1          2
     1  O   -0.500000   0.500000
     2  O   -0.500000   0.500000
 Sum of Mulliken charges =  -1.00000   1.00000
 Mulliken charges and spin densities with hydrogens summed into heavy atoms:
               1          2
     1  O   -0.500000   0.500000
     2  O   -0.500000   0.500000
 Electronic spatial extent (au):  <R**2>=             53.6998
 Charge=             -1.0000 electrons
 Dipole moment (field-independent basis, Debye):
    X=              0.0000    Y=             -0.0000    Z=             -0.0000  Tot=              0.0000
 Quadrupole moment (field-independent basis, Debye-Ang):
   XX=            -13.6689   YY=            -13.3478   ZZ=            -16.9089
   XY=              0.8337   XZ=              0.0000   YZ=             -0.0000
 Traceless Quadrupole moment (field-independent basis, Debye-Ang):
   XX=              0.9729   YY=              1.2941   ZZ=             -2.2670
   XY=              0.8337   XZ=              0.0000   YZ=             -0.0000
 Octapole moment (field-independent basis, Debye-Ang**2):
  XXX=              0.0000  YYY=             -0.0000  ZZZ=              0.0000  XYY=              0.0000
  XXY=             -0.0000  XXZ=              0.0000  XZZ=             -0.0000  YZZ=             -0.0000
  YYZ=              0.0000  XYZ=             -0.0000
 Hexadecapole moment (field-independent basis, Debye-Ang**3):
 XXXX=            -15.5004 YYYY=            -14.6819 ZZZZ=            -47.0043 XXXY=              1.0625
 XXXZ=              0.0000 YYYX=              1.0625 YYYZ=             -0.0000 ZZZX=              0.0000
 ZZZY=              0.0000 XXYY=             -5.0304 XXZZ=            -11.9717 YYZZ=            -11.4935
 XXYZ=             -0.0000 YYXZ=              0.0000 ZZXY=              1.2415
 N-N= 2.790387852993D+01 E-N=-4.182736486401D+02  KE= 1.505273343932D+02
 Symmetry AG   KE= 6.917040595316D+01
 Symmetry B1G  KE= 2.389139231075D-04
 Symmetry B2G  KE= 4.231026452060D+00
 Symmetry B3G  KE= 3.767854515565D+00
 Symmetry AU   KE= 2.808049736280D-04
 Symmetry B1U  KE= 6.489276827534D+01
 Symmetry B2U  KE= 4.230496660291D+00
 Symmetry B3U  KE= 4.234262817851D+00
                          Isotropic Fermi Contact Couplings
        Atom                 a.u.       MegaHertz       Gauss      10(-4) cm-1
     1  O(17)              0.04197     -25.44405      -9.07907      -8.48722
     2  O(17)              0.04197     -25.44405      -9.07907      -8.48722
 --------------------------------------------------------
       Center         ----  Spin Dipole Couplings  ----
                      3XX-RR        3YY-RR        3ZZ-RR
 --------------------------------------------------------
     1   Atom        0.261470      0.876394     -1.137864
     2   Atom        0.261470      0.876394     -1.137864
 --------------------------------------------------------
                        XY            XZ            YZ
 --------------------------------------------------------
     1   Atom        1.596554      0.000000      0.000000
     2   Atom        1.596554      0.000000     -0.000000
 --------------------------------------------------------


 ---------------------------------------------------------------------------------
              Anisotropic Spin Dipole Couplings in Principal Axis System
 ---------------------------------------------------------------------------------

       Atom             a.u.   MegaHertz   Gauss  10(-4) cm-1        Axes

              Baa    -1.1379    82.335    29.379    27.464 -0.0000 -0.0000  1.0000
     1 O(17)  Bbb    -1.0570    76.481    27.290    25.511  0.7711 -0.6367 -0.0000
              Bcc     2.1948  -158.816   -56.669   -52.975  0.6367  0.7711  0.0000
 
              Baa    -1.1379    82.335    29.379    27.464 -0.0000  0.0000  1.0000
     2 O(17)  Bbb    -1.0570    76.481    27.290    25.511  0.7711 -0.6367  0.0000
              Bcc     2.1948  -158.816   -56.669   -52.975  0.6367  0.7711 -0.0000
 

 ---------------------------------------------------------------------------------

 1\1\GINC-LOCALHOST\SP\UVSXC\6-311+G(d)\O2(1-,2)\ROOT\02-Aug-2020\0\\# 
 UVSXC/6-311+G(d) Geom=Check Guess=Read SCF=(VeryTight,MaxCyc=500,NoVar
 Acc,XQC) Int=(Grid=UltraFine,Acc2e=12)\\Single point of O2^-1 at the U
 VSXC/6-311+G(d) level of theory\\-1,2\O,0,1.7620243313,-0.37828947,0.\
 O,0,2.9757388087,-0.37828947,0.\\Version=ES64L-G09RevE.01\HF=-150.4014
 693\S2=0.755178\S2-1=0.\S2A=0.750019\RMSD=8.826e-09\Dipole=0.,0.,0.\Qu
 adrupole=-1.6854569,0.9621004,0.7233565,0.,0.,0.6198645\PG=D*H [C*(O1.
 O1)]\\@


 ONLY A FOOL KNOWS EVERYTHING.

               -- THE CHEMIST ANALYST, SEPTEMBER 1946
 Job cpu time:       0 days  0 hours  0 minutes 28.9 seconds.
 File lengths (MBytes):  RWF=      5 Int=      0 D2E=      0 Chk=      1 Scr=      1
 Normal termination of Gaussian 09 at Sun Aug  2 22:41:28 2020.
