 Entering Gaussian System, Link 0=/opt/g09E01ES64L/g09/g09
 Initial command:
 /opt/g09E01ES64L/g09/l1.exe "/home/scratch/Gau-9297.inp" -scrdir="/home/scratch/"
 Entering Link 1 = /opt/g09E01ES64L/g09/l1.exe PID=      9298.
  
 Copyright (c) 1988,1990,1992,1993,1995,1998,2003,2009,2015,
            Gaussian, Inc.  All Rights Reserved.
  
 This is part of the Gaussian(R) 09 program.  It is based on
 the Gaussian(R) 03 system (copyright 2003, Gaussian, Inc.),
 the Gaussian(R) 98 system (copyright 1998, Gaussian, Inc.),
 the Gaussian(R) 94 system (copyright 1995, Gaussian, Inc.),
 the Gaussian 92(TM) system (copyright 1992, Gaussian, Inc.),
 the Gaussian 90(TM) system (copyright 1990, Gaussian, Inc.),
 the Gaussian 88(TM) system (copyright 1988, Gaussian, Inc.),
 the Gaussian 86(TM) system (copyright 1986, Carnegie Mellon
 University), and the Gaussian 82(TM) system (copyright 1983,
 Carnegie Mellon University). Gaussian is a federally registered
 trademark of Gaussian, Inc.
  
 This software contains proprietary and confidential information,
 including trade secrets, belonging to Gaussian, Inc.
  
 This software is provided under written license and may be
 used, copied, transmitted, or stored only in accord with that
 written license.
  
 The following legend is applicable only to US Government
 contracts under FAR:
  
                    RESTRICTED RIGHTS LEGEND
  
 Use, reproduction and disclosure by the US Government is
 subject to restrictions as set forth in subparagraphs (a)
 and (c) of the Commercial Computer Software - Restricted
 Rights clause in FAR 52.227-19.
  
 Gaussian, Inc.
 340 Quinnipiac St., Bldg. 40, Wallingford CT 06492
  
  
 ---------------------------------------------------------------
 Warning -- This program may not be used in any manner that
 competes with the business of Gaussian, Inc. or will provide
 assistance to any competitor of Gaussian, Inc.  The licensee
 of this program is prohibited from giving any competitor of
 Gaussian, Inc. access to this program.  By using this program,
 the user acknowledges that Gaussian, Inc. is engaged in the
 business of creating and licensing software in the field of
 computational chemistry and represents and warrants to the
 licensee that it is not a competitor of Gaussian, Inc. and that
 it will not use this program in any manner prohibited above.
 ---------------------------------------------------------------
  

 Cite this work as:
 Gaussian 09, Revision E.01,
 M. J. Frisch, G. W. Trucks, H. B. Schlegel, G. E. Scuseria, 
 M. A. Robb, J. R. Cheeseman, G. Scalmani, V. Barone, B. Mennucci, 
 G. A. Petersson, H. Nakatsuji, M. Caricato, X. Li, H. P. Hratchian, 
 A. F. Izmaylov, J. Bloino, G. Zheng, J. L. Sonnenberg, M. Hada, 
 M. Ehara, K. Toyota, R. Fukuda, J. Hasegawa, M. Ishida, T. Nakajima, 
 Y. Honda, O. Kitao, H. Nakai, T. Vreven, J. A. Montgomery, Jr., 
 J. E. Peralta, F. Ogliaro, M. Bearpark, J. J. Heyd, E. Brothers, 
 K. N. Kudin, V. N. Staroverov, T. Keith, R. Kobayashi, J. Normand, 
 K. Raghavachari, A. Rendell, J. C. Burant, S. S. Iyengar, J. Tomasi, 
 M. Cossi, N. Rega, J. M. Millam, M. Klene, J. E. Knox, J. B. Cross, 
 V. Bakken, C. Adamo, J. Jaramillo, R. Gomperts, R. E. Stratmann, 
 O. Yazyev, A. J. Austin, R. Cammi, C. Pomelli, J. W. Ochterski, 
 R. L. Martin, K. Morokuma, V. G. Zakrzewski, G. A. Voth, 
 P. Salvador, J. J. Dannenberg, S. Dapprich, A. D. Daniels, 
 O. Farkas, J. B. Foresman, J. V. Ortiz, J. Cioslowski, 
 and D. J. Fox, Gaussian, Inc., Wallingford CT, 2013.
 
 ******************************************
 Gaussian 09:  ES64L-G09RevE.01 30-Nov-2015
                 2-Aug-2020 
 ******************************************
 %nprocshared=16
 Will use up to   16 processors via shared memory.
 %mem=16GB
 %chk=O2_dft002_N+1.chk
 ----------------------------------------------------------------------
 # UBLYP/6-311+G(d) Geom=Check Guess=Read SCF=(VeryTight,MaxCyc=500,NoV
 arAcc,XQC) Int=(Grid=UltraFine,Acc2e=12)
 ----------------------------------------------------------------------
 1/29=2,38=1/1;
 2/12=2,40=1/2;
 3/5=4,6=6,7=11,11=2,14=-4,16=1,25=1,30=1,74=402,75=-5,116=2/1,2,3;
 4/5=1/1;
 5/5=2,7=500,8=3,13=1,17=3,38=6,87=12/2,8;
 6/7=2,8=2,9=2,10=2,28=1/1;
 99/5=1,9=1/99;
 -------------------------------------------------------------
 Single point of O2^-1 at the UBLYP/6-311+G(d) level of theory
 -------------------------------------------------------------
 Structure from the checkpoint file:  "O2_dft002_N+1.chk"
 Charge = -1 Multiplicity = 2
 Redundant internal coordinates found in file.
 O,0,1.7529686167,-0.37828947,0.
 O,0,2.9847945233,-0.37828947,0.
 Recover connectivity data from disk.
                          Input orientation:                          
 ---------------------------------------------------------------------
 Center     Atomic      Atomic             Coordinates (Angstroms)
 Number     Number       Type             X           Y           Z
 ---------------------------------------------------------------------
      1          8           0        1.752969   -0.378289    0.000000
      2          8           0        2.984795   -0.378289    0.000000
 ---------------------------------------------------------------------
 Stoichiometry    O2(1-,2)
 Framework group  D*H[C*(O.O)]
 Deg. of freedom     1
 Full point group                 D*H     NOp   8
 Largest Abelian subgroup         D2H     NOp   8
 Largest concise Abelian subgroup C2      NOp   2
                         Standard orientation:                         
 ---------------------------------------------------------------------
 Center     Atomic      Atomic             Coordinates (Angstroms)
 Number     Number       Type             X           Y           Z
 ---------------------------------------------------------------------
      1          8           0        0.000000    0.000000    0.615913
      2          8           0        0.000000    0.000000   -0.615913
 ---------------------------------------------------------------------
 Rotational constants (GHZ):      0.0000000     41.6453578     41.6453578
 Standard basis: 6-311+G(d) (5D, 7F)
 There are    12 symmetry adapted cartesian basis functions of AG  symmetry.
 There are     1 symmetry adapted cartesian basis functions of B1G symmetry.
 There are     5 symmetry adapted cartesian basis functions of B2G symmetry.
 There are     5 symmetry adapted cartesian basis functions of B3G symmetry.
 There are     1 symmetry adapted cartesian basis functions of AU  symmetry.
 There are    12 symmetry adapted cartesian basis functions of B1U symmetry.
 There are     5 symmetry adapted cartesian basis functions of B2U symmetry.
 There are     5 symmetry adapted cartesian basis functions of B3U symmetry.
 There are    11 symmetry adapted basis functions of AG  symmetry.
 There are     1 symmetry adapted basis functions of B1G symmetry.
 There are     5 symmetry adapted basis functions of B2G symmetry.
 There are     5 symmetry adapted basis functions of B3G symmetry.
 There are     1 symmetry adapted basis functions of AU  symmetry.
 There are    11 symmetry adapted basis functions of B1U symmetry.
 There are     5 symmetry adapted basis functions of B2U symmetry.
 There are     5 symmetry adapted basis functions of B3U symmetry.
    44 basis functions,    72 primitive gaussians,    46 cartesian basis functions
     9 alpha electrons        8 beta electrons
       nuclear repulsion energy        27.4936102305 Hartrees.
 NAtoms=    2 NActive=    2 NUniq=    1 SFac= 4.00D+00 NAtFMM=   60 NAOKFM=F Big=F
 Integral buffers will be    131072 words long.
 Raffenetti 2 integral format.
 Two-electron integral symmetry is turned on.
 One-electron integrals computed using PRISM.
 NBasis=    44 RedAO= T EigKep=  1.27D-03  NBF=    11     1     5     5     1    11     5     5
 NBsUse=    44 1.00D-06 EigRej= -1.00D+00 NBFU=    11     1     5     5     1    11     5     5
 Initial guess from the checkpoint file:  "O2_dft002_N+1.chk"
 B after Tr=     0.000000    0.000000    0.000000
         Rot=    1.000000    0.000000    0.000000    0.000000 Ang=   0.00 deg.
 Initial guess orbital symmetries:
 Alpha Orbitals:
       Occupied  (SGG) (SGU) (SGG) (SGU) (SGG) (PIU) (PIU) (PIG)
                 (PIG)
       Virtual   (SGU) (SGG) (PIU) (PIU) (SGU) (SGG) (PIG) (PIG)
                 (SGU) (PIU) (PIU) (SGU) (SGG) (PIG) (PIG) (SGG)
                 (SGU) (PIU) (PIU) (DLTG) (DLTG) (SGG) (DLTU) (DLTU)
                 (PIG) (PIG) (SGU) (PIU) (PIU) (SGG) (PIG) (PIG)
                 (SGU) (SGG) (SGU)
 Beta  Orbitals:
       Occupied  (SGG) (SGU) (SGG) (SGU) (SGG) (PIU) (PIU) (PIG)
       Virtual   (PIG) (SGG) (SGU) (PIU) (PIU) (SGG) (PIG) (PIG)
                 (SGU) (SGU) (SGU) (PIU) (PIU) (SGG) (PIG) (PIG)
                 (SGG) (SGU) (PIU) (PIU) (DLTG) (DLTG) (SGG) (DLTU)
                 (DLTU) (PIG) (PIG) (SGU) (PIU) (PIU) (SGG) (PIG)
                 (PIG) (SGU) (SGG) (SGU)
 Initial guess <Sx>= 0.0000 <Sy>= 0.0000 <Sz>= 0.5000 <S**2>= 0.7578 S= 0.5039
 Keep J ints in memory in symmetry-blocked form, NReq=1388265.
 Requested convergence on RMS density matrix=1.00D-08 within 128 cycles.
 Requested convergence on MAX density matrix=1.00D-06.
 Requested convergence on             energy=1.00D-06.
 No special actions if energy rises.
 SCF Done:  E(UB-LYP) =  -150.371057469     A.U. after    9 cycles
            NFock=  9  Conv=0.11D-08     -V/T= 1.9991
 <Sx>= 0.0000 <Sy>= 0.0000 <Sz>= 0.5000 <S**2>= 0.7529 S= 0.5014
 <L.S>= 0.000000000000E+00
 Annihilation of the first spin contaminant:
 S**2 before annihilation     0.7529,   after     0.7500
 QCSCF skips out because SCF is already converged.

 **********************************************************************

            Population analysis using the SCF density.

 **********************************************************************

 Orbital symmetries:
 Alpha Orbitals:
       Occupied  (SGG) (SGU) (SGG) (SGU) (PIU) (SGG) (PIU) (PIG)
                 (PIG)
       Virtual   (SGU) (SGG) (PIU) (PIU) (PIG) (PIG) (SGG) (SGU)
                 (SGU) (PIU) (SGU) (SGG) (PIU) (PIG) (PIG) (SGG)
                 (SGU) (PIU) (PIU) (?A) (?A) (?A) (DLTU) (DLTU)
                 (PIG) (PIG) (SGU) (PIU) (PIU) (SGG) (PIG) (PIG)
                 (SGU) (SGG) (SGU)
 Beta  Orbitals:
       Occupied  (SGG) (SGU) (SGG) (SGU) (SGG) (PIU) (PIU) (PIG)
       Virtual   (PIG) (SGU) (SGG) (PIU) (PIU) (PIG) (SGG) (PIG)
                 (SGU) (SGU) (SGU) (SGG) (PIU) (PIU) (PIG) (PIG)
                 (SGG) (SGU) (PIU) (PIU) (DLTG) (DLTG) (SGG) (DLTU)
                 (DLTU) (PIG) (PIG) (SGU) (PIU) (PIU) (SGG) (PIG)
                 (PIG) (SGU) (SGG) (SGU)
 Unable to determine electronic state:  partially filled degenerate orbitals.
 Alpha  occ. eigenvalues --  -18.51327 -18.51325  -0.79688  -0.36836  -0.12092
 Alpha  occ. eigenvalues --   -0.12060  -0.08504   0.11080   0.14818
 Alpha virt. eigenvalues --    0.27911   0.29167   0.33052   0.33747   0.38978
 Alpha virt. eigenvalues --    0.39491   0.39968   0.52446   0.52890   1.18727
 Alpha virt. eigenvalues --    1.19907   1.20781   1.21096   1.25204   1.27406
 Alpha virt. eigenvalues --    1.47052   1.74449   2.54804   2.57758   2.86847
 Alpha virt. eigenvalues --    2.86969   3.08824   3.10779   3.10782   3.66169
 Alpha virt. eigenvalues --    3.69426   4.09225   4.95569   4.99020   5.01289
 Alpha virt. eigenvalues --    5.18460   5.22031   6.34080  49.58108  49.67493
  Beta  occ. eigenvalues --  -18.50110 -18.50107  -0.77508  -0.33727  -0.10480
  Beta  occ. eigenvalues --   -0.07415  -0.06916   0.16086
  Beta virt. eigenvalues --    0.17143   0.28175   0.29550   0.33831   0.33831
  Beta virt. eigenvalues --    0.39633   0.39945   0.40320   0.53232   0.54305
  Beta virt. eigenvalues --    1.20654   1.21437   1.21685   1.21898   1.28066
  Beta virt. eigenvalues --    1.28794   1.48348   1.76411   2.58252   2.58301
  Beta virt. eigenvalues --    2.90829   2.91097   3.10769   3.14852   3.15146
  Beta virt. eigenvalues --    3.70206   3.70580   4.10878   5.00190   5.01434
  Beta virt. eigenvalues --    5.02279   5.23273   5.24517   6.35689  49.59589
  Beta virt. eigenvalues --   49.68966
          Condensed to atoms (all electrons):
               1          2
     1  O    8.994990  -0.494990
     2  O   -0.494990   8.994990
          Atomic-Atomic Spin Densities.
               1          2
     1  O    0.785533  -0.285533
     2  O   -0.285533   0.785533
 Mulliken charges and spin densities:
               1          2
     1  O   -0.500000   0.500000
     2  O   -0.500000   0.500000
 Sum of Mulliken charges =  -1.00000   1.00000
 Mulliken charges and spin densities with hydrogens summed into heavy atoms:
               1          2
     1  O   -0.500000   0.500000
     2  O   -0.500000   0.500000
 Electronic spatial extent (au):  <R**2>=             55.0529
 Charge=             -1.0000 electrons
 Dipole moment (field-independent basis, Debye):
    X=             -0.0000    Y=              0.0000    Z=              0.0000  Tot=              0.0000
 Quadrupole moment (field-independent basis, Debye-Ang):
   XX=            -14.6781   YY=            -12.9429   ZZ=            -17.2736
   XY=              0.0000   XZ=              0.0000   YZ=              0.0000
 Traceless Quadrupole moment (field-independent basis, Debye-Ang):
   XX=              0.2867   YY=              2.0220   ZZ=             -2.3087
   XY=              0.0000   XZ=              0.0000   YZ=              0.0000
 Octapole moment (field-independent basis, Debye-Ang**2):
  XXX=             -0.0000  YYY=              0.0000  ZZZ=             -0.0000  XYY=             -0.0000
  XXY=             -0.0000  XXZ=              0.0000  XZZ=             -0.0000  YZZ=             -0.0000
  YYZ=              0.0000  XYZ=              0.0000
 Hexadecapole moment (field-independent basis, Debye-Ang**3):
 XXXX=            -18.3148 YYYY=            -13.7577 ZZZZ=            -49.4830 XXXY=              0.0000
 XXXZ=              0.0000 YYYX=              0.0000 YYYZ=              0.0000 ZZZX=              0.0000
 ZZZY=              0.0000 XXYY=             -5.3454 XXZZ=            -13.7421 YYZZ=            -11.0957
 XXYZ=              0.0000 YYXZ=              0.0000 ZZXY=             -0.0000
 N-N= 2.749361023050D+01 E-N=-4.172992416154D+02  KE= 1.505034707955D+02
 Symmetry AG   KE= 6.912431526372D+01
 Symmetry B1G  KE= 1.127438308742D-34
 Symmetry B2G  KE= 5.240515853454D+00
 Symmetry B3G  KE= 2.764485770153D+00
 Symmetry AU   KE= 2.068412479398D-34
 Symmetry B1U  KE= 6.484587269655D+01
 Symmetry B2U  KE= 4.264126451929D+00
 Symmetry B3U  KE= 4.264154759687D+00
                          Isotropic Fermi Contact Couplings
        Atom                 a.u.       MegaHertz       Gauss      10(-4) cm-1
     1  O(17)              0.02875     -17.42635      -6.21816      -5.81281
     2  O(17)              0.02875     -17.42635      -6.21816      -5.81281
 --------------------------------------------------------
       Center         ----  Spin Dipole Couplings  ----
                      3XX-RR        3YY-RR        3ZZ-RR
 --------------------------------------------------------
     1   Atom       -1.084101      2.206276     -1.122174
     2   Atom       -1.084101      2.206276     -1.122174
 --------------------------------------------------------
                        XY            XZ            YZ
 --------------------------------------------------------
     1   Atom        0.000000     -0.000000      0.000000
     2   Atom        0.000000     -0.000000      0.000000
 --------------------------------------------------------


 ---------------------------------------------------------------------------------
              Anisotropic Spin Dipole Couplings in Principal Axis System
 ---------------------------------------------------------------------------------

       Atom             a.u.   MegaHertz   Gauss  10(-4) cm-1        Axes

              Baa    -1.1222    81.200    28.974    27.085  0.0000  0.0000  1.0000
     1 O(17)  Bbb    -1.0841    78.445    27.991    26.166  1.0000  0.0000  0.0000
              Bcc     2.2063  -159.645   -56.965   -53.252  0.0000  1.0000  0.0000
 
              Baa    -1.1222    81.200    28.974    27.085  0.0000  0.0000  1.0000
     2 O(17)  Bbb    -1.0841    78.445    27.991    26.166  1.0000  0.0000  0.0000
              Bcc     2.2063  -159.645   -56.965   -53.252  0.0000  1.0000  0.0000
 

 ---------------------------------------------------------------------------------

 1\1\GINC-LOCALHOST\SP\UBLYP\6-311+G(d)\O2(1-,2)\ROOT\02-Aug-2020\0\\# 
 UBLYP/6-311+G(d) Geom=Check Guess=Read SCF=(VeryTight,MaxCyc=500,NoVar
 Acc,XQC) Int=(Grid=UltraFine,Acc2e=12)\\Single point of O2^-1 at the U
 BLYP/6-311+G(d) level of theory\\-1,2\O,0,1.7529686167,-0.37828947,0.\
 O,0,2.9847945233,-0.37828947,0.\\Version=ES64L-G09RevE.01\HF=-150.3710
 575\S2=0.752882\S2-1=0.\S2A=0.750005\RMSD=1.060e-09\Dipole=0.,0.,0.\Qu
 adrupole=-1.7164614,1.5032895,0.2131719,0.,0.,0.\PG=D*H [C*(O1.O1)]\\@


 BUT 'GLORY' DOESN'T MEAN 'A NICE KNOCK DOWN ARGUMENT', ALICE OBJECTED.
 WHEN I USE A WORD, HUMPTY DUMPTY SAID, IN A RATHER SCORNFUL TONE,
 IT MEANS JUST WHAT I CHOOSE IT TO MEAN....
 NEITHER MORE NOR LESS....
 THE QUESTION IS, SAID ALICE,
 WHETHER YOU CAN MAKE WORDS MEAN SO MANY DIFFERENT THINGS...
 THE QUESTION IS, SAID HUMPTY DUMPTY,
 WHICH IS TO BE MASTER....
 THAT IS ALL.....

 ALICE THROUGH THE LOOKING GLASS
 Job cpu time:       0 days  0 hours  0 minutes 22.5 seconds.
 File lengths (MBytes):  RWF=      5 Int=      0 D2E=      0 Chk=      1 Scr=      1
 Normal termination of Gaussian 09 at Sun Aug  2 22:41:22 2020.
